# vtk DataFile Version 3.0
The density field of the optimized results
ASCII
DATASET UNSTRUCTURED_GRID

POINTS	6318	double
-2.04598		0.75		0.755
-2.04598		0.75		1.505
-2.09772		1.50984		0.551886
-2.1009		-0.00447475		0.549499
-2.03988		-0.00343832		1.74775
-2.04522		1.12091		1.74947
-2.03692		1.50343		1.37091
-1.70948		1.49214		0.452683
-1.65694		1.49647		1.36917
-1.66524		1.11877		1.75065
-1.65988		0.00137096		1.74878
-1.71202		0.0106349		0.441774
-1.66598		0.75		1.505
-1.66598		0.75		0.755
0.137459		-0.064602		1.07909
0.137451		1.05007		1.12107
-0.0713084		1.45752		0.768124
-0.553385		1.48827		-0.100545
-0.558688		-0.0134475		-0.15472
0.00359895		0.694976		0.851261
-0.412725		0.727615		0.129818
-0.171007		1.487		-0.309761
0.307963		1.45712		0.557696
0.519688		1.04995		0.910483
0.519537		-0.0647907		0.868045
-0.176626		-0.0165061		-0.368352
0.381813		0.69495		0.640487
-0.0341464		0.726536		-0.0807307
1.44989		1.47679		-1.19898
1.94745		0.974344		-1.49538
1.67143		0.99473		-1.99538
1.17387		1.49717		-1.69898
0.79387		1.49903		-1.4892
1.06989		1.47865		-0.989201
0.791427		0.999019		-1.50958
1.06745		0.978652		-1.00958
0.171592		1.00159		-1.16752
0.447342		0.982046		-0.667499
0.174666		1.5012		-1.14831
0.449552		1.48236		-0.648276
1.94256		-0.0256629		-1.53617
1.66654		-0.00526491		-2.03617
-2.28954		0.00296735		0.0707171
-2.27784		1.51053		0.078013
-2.04598		0.847057		0.767778
-2.04598		0.9375		0.80524
-2.04598		1.01517		0.864835
-2.04598		1.07476		0.9425
-2.04598		1.11222		1.03294
-2.04598		1.125		1.13
-2.04598		1.11222		1.22706
-2.04598		1.07476		1.3175
-2.04598		1.01517		1.39517
-2.04598		0.9375		1.45476
-2.04598		0.847057		1.49222
-2.04598		0.652943		1.49222
-2.04598		0.5625		1.45476
-2.04598		0.484835		1.39517
-2.04598		0.42524		1.3175
-2.04598		0.387778		1.22706
-2.04598		0.375		1.13
-2.04598		0.387778		1.03294
-2.04598		0.42524		0.9425
-2.04598		0.484835		0.864835
-2.04598		0.5625		0.80524
-2.04598		0.652943		0.767778
-2.10099		1.40688		0.554188
-2.10228		1.3046		0.552686
-2.10295		1.2031		0.551552
-2.10252		1.10213		0.550534
-2.10112		1.00171		0.549412
-2.10001		0.901663		0.548492
-2.09922		0.80191		0.547285
-2.09969		0.702202		0.547403
-2.1008		0.60223		0.548352
-2.10147		0.502246		0.548068
-2.10207		0.402285		0.547933
-2.10344		0.301654		0.548769
-2.10452		0.200444		0.548839
-2.10356		0.0982767		0.54976
-2.07532		-0.00520215		0.627147
-2.05811		-0.00557306		0.705777
-2.04694		-0.00610462		0.786582
-2.04002		-0.00623528		0.869218
-2.03637		-0.0059648		0.953429
-2.03507		-0.00542082		1.03906
-2.03515		-0.00481145		1.12591
-2.03587		-0.00425597		1.21369
-2.03678		-0.00381071		1.30211
-2.03768		-0.00349912		1.39094
-2.03845		-0.00330461		1.48002
-2.03907		-0.00322772		1.56922
-2.03954		-0.00328314		1.65847
-2.04123		0.0984059		1.74797
-2.04259		0.200366		1.74828
-2.04383		0.302522		1.74864
-2.04484		0.404858		1.74901
-2.04555		0.507287		1.74932
-2.04598		0.609728		1.74955
-2.04618		0.712112		1.74968
-2.04622		0.814433		1.74971
-2.04609		0.916696		1.74965
-2.04576		1.01887		1.74954
-2.04438		1.19719		1.67349
-2.04312		1.27368		1.59754
-2.0413		1.35034		1.52179
-2.03906		1.42694		1.44624
-2.03638		1.50404		1.27468
-2.03575		1.50459		1.17919
-2.03544		1.50531		1.08476
-2.03616		1.50623		0.991679
-2.039		1.50704		0.900201
-2.04512		1.50753		0.810576
-2.05563		1.5078		0.723125
-2.07255		1.50871		0.637809
-1.80873		0.0075192		0.471837
-1.90538		0.00289408		0.497985
-2.00256		-0.00176171		0.522951
-1.99936		1.50666		0.530184
-1.90224		1.50166		0.505825
-1.80581		1.49628		0.481407
-1.75488		0.00012577		1.7485
-1.84987		-0.00104359		1.74828
-1.94488		-0.00220855		1.74806
-1.76027		1.11933		1.75034
-1.85527		1.11984		1.75006
-1.95026		1.12034		1.74978
-1.75187		1.49839		1.36922
-1.84684		1.49995		1.37003
-1.94186		1.5015		1.37085
-1.95098		0.75		0.755
-1.85598		0.75		0.755
-1.76098		0.75		0.755
-1.76098		0.75		1.505
-1.85598		0.75		1.505
-1.95098		0.75		1.505
-1.68932		1.49034		0.560757
-1.6745		1.49076		0.666625
-1.66473		1.49117		0.770795
-1.65881		1.49196		0.873639
-1.65606		1.4931		0.975128
-1.6554		1.49429		1.07528
-1.65574		1.49519		1.17417
-1.65639		1.49583		1.27204
-1.65908		1.42097		1.44588
-1.66133		1.34554		1.52237
-1.66315		1.27014		1.59862
-1.6644		1.19456		1.67466
-1.6658		1.01713		1.75054
-1.66615		0.915601		1.75041
-1.66631		0.814103		1.7503
-1.66631		0.712592		1.75024
-1.66614		0.611072		1.75019
-1.66572		0.509561		1.7501
-1.66499		0.408048		1.74994
-1.66394		0.306507		1.7497
-1.66265		0.204889		1.74941
-1.66125		0.103167		1.74911
-1.65956		0.00166791		1.65949
-1.65912		0.00200666		1.57014
-1.65855		0.00242012		1.48066
-1.65785		0.00292519		1.39097
-1.65704		0.00356541		1.3009
-1.65621		0.00441015		1.21028
-1.65558		0.00548713		1.11887
-1.65557		0.00678341		1.02641
-1.65693		0.00820018		0.932698
-1.66058		0.00951084		0.837663
-1.66729		0.0105673		0.741317
-1.6776		0.0113287		0.643599
-1.69293		0.0123402		0.543923
-1.71488		0.10748		0.440519
-1.71426		0.205033		0.439562
-1.71448		0.303322		0.441412
-1.71325		0.402564		0.442675
-1.71219		0.501961		0.44337
-1.71183		0.601172		0.444831
-1.71125		0.700662		0.446679
-1.71038		0.800177		0.446657
-1.71106		0.899664		0.44717
-1.71177		0.99919		0.447207
-1.71235		1.09886		0.446888
-1.71315		1.19787		0.447949
-1.71248		1.29655		0.448491
-1.71202		1.39474		0.450456
-1.66598		0.847057		1.49222
-1.66598		0.9375		1.45476
-1.66598		1.01517		1.39517
-1.66598		1.07476		1.3175
-1.66598		1.11222		1.22706
-1.66598		1.125		1.13
-1.66598		1.11222		1.03294
-1.66598		1.07476		0.9425
-1.66598		1.01517		0.864835
-1.66598		0.9375		0.80524
-1.66598		0.847057		0.767778
-1.66598		0.652943		0.767778
-1.66598		0.5625		0.80524
-1.66598		0.484835		0.864835
-1.66598		0.42524		0.9425
-1.66598		0.387778		1.03294
-1.66598		0.375		1.13
-1.66598		0.387778		1.22706
-1.66598		0.42524		1.3175
-1.66598		0.484835		1.39517
-1.66598		0.5625		1.45476
-1.66598		0.652943		1.49222
0.1378		0.0293724		1.08281
0.137981		0.123226		1.085
0.137999		0.217075		1.08687
0.137887		0.310808		1.08827
0.137643		0.404193		1.08931
0.137319		0.497011		1.09035
0.137013		0.589176		1.09202
0.136851		0.680833		1.09504
0.136892		0.772431		1.09993
0.137031		0.864311		1.10621
0.137336		0.956868		1.11356
0.0961676		1.13213		1.05259
0.0544727		1.21407		0.9829
0.0125914		1.29588		0.912108
-0.029393		1.37702		0.84031
-0.124875		1.46279		0.670999
-0.178343		1.46753		0.573684
-0.231878		1.47139		0.476395
-0.285454		1.47453		0.379367
-0.338999		1.47727		0.282673
-0.392466		1.47987		0.186296
-0.44584		1.48252		0.0902846
-0.499299		1.48545		-0.00530413
-0.553539		1.38818		-0.10361
-0.553999		1.28811		-0.106869
-0.554456		1.18809		-0.110145
-0.554743		1.08805		-0.11336
-0.555056		0.988048		-0.116463
-0.555264		0.88808		-0.119644
-0.555505		0.788098		-0.123001
-0.555797		0.688136		-0.126533
-0.55595		0.588123		-0.130307
-0.556303		0.488162		-0.134152
-0.556591		0.388114		-0.138181
-0.556838		0.288		-0.142132
-0.557176		0.187665		-0.146103
-0.557486		0.0871347		-0.150276
-0.504346		-0.0185806		-0.0624019
-0.450543		-0.0232111		0.0310802
-0.396967		-0.0284627		0.125369
-0.343278		-0.0339251		0.220179
-0.289552		-0.039352		0.315415
-0.235853		-0.0444747		0.410977
-0.18223		-0.0489134		0.506889
-0.128726		-0.052567		0.602924
-0.0753152		-0.0554714		0.698911
-0.0219555		-0.0578266		0.794709
0.0313893		-0.0598905		0.890222
0.0847256		-0.0618887		0.985206
-0.00381099		0.596784		0.835558
-0.0253159		0.506358		0.797413
-0.0591596		0.429601		0.738418
-0.102906		0.371914		0.661941
-0.153469		0.337521		0.573611
-0.207263		0.328802		0.479392
-0.260725		0.347003		0.385985
-0.310218		0.38984		0.299785
-0.352663		0.454412		0.226604
-0.385193		0.535846		0.171696
-0.405683		0.629001		0.138625
-0.405686		0.825204		0.145668
-0.385098		0.915291		0.185561
-0.352365		0.991824		0.246813
-0.309691		1.04966		0.325078
-0.25998		1.08473		0.415241
-0.206525		1.09437		0.510603
-0.152851		1.07744		0.60445
-0.102514		1.03544		0.690309
-0.0589667		0.970729		0.761535
-0.0251549		0.888467		0.813717
-0.00375979		0.794241		0.843742
-0.128829		0.726752		-0.0284363
-0.223442		0.727078		0.0240608
-0.318055		0.727421		0.0768329
0.0981301		0.694961		0.79928
0.192705		0.694953		0.746807
0.287281		0.694946		0.693894
0.424061		1.04975		0.964259
0.328567		1.04981		1.01691
0.233074		1.04982		1.06955
0.233058		-0.0643155		1.02806
0.328498		-0.0642514		0.9754
0.423938		-0.0644095		0.92254
0.213132		1.45701		0.610218
0.118321		1.45702		0.662806
0.0235126		1.4572		0.715445
-0.266401		1.48768		-0.258012
-0.361916		1.48811		-0.205788
-0.457547		1.48832		-0.153279
-0.462909		-0.0149701		-0.209425
-0.36724		-0.0157234		-0.262964
-0.271753		-0.0161814		-0.315833
-0.118402		1.48421		-0.214753
-0.0653569		1.48138		-0.119398
-0.0120879		1.47886		-0.023559
0.0411608		1.47637		0.0726698
0.0943988		1.47374		0.169232
0.147667		1.47072		0.266146
0.201037		1.46697		0.363352
0.254526		1.46232		0.460613
0.350045		1.37668		0.629861
0.392101		1.2956		0.701617
0.434317		1.21387		0.772366
0.476775		1.13199		0.842029
0.519773		0.956763		0.902957
0.520083		0.864229		0.895561
0.520257		0.772367		0.889221
0.520347		0.680776		0.884262
0.520235		0.589114		0.881178
0.519966		0.496933		0.879459
0.519656		0.404089		0.878362
0.519398		0.310673		0.877288
0.519243		0.216914		0.875856
0.519193		0.123046		0.873965
0.519289		0.0291847		0.871764
0.46546		-0.0620842		0.774159
0.411975		-0.0601089		0.679169
0.358478		-0.0580877		0.58364
0.304968		-0.0557944		0.487813
0.251473		-0.0529718		0.39178
0.19803		-0.049417		0.295681
0.144659		-0.0450904		0.199682
0.0913036		-0.0400882		0.104006
0.0379151		-0.0347922		0.00864417
-0.0155903		-0.0294996		-0.0863185
-0.0693141		-0.0245114		-0.180811
-0.122974		-0.0203082		-0.274686
-0.176035		0.0842206		-0.363093
-0.175581		0.184782		-0.358769
-0.175254		0.285213		-0.354394
-0.174937		0.385467		-0.349993
-0.174696		0.485639		-0.345569
-0.174458		0.585764		-0.341167
-0.174154		0.685809		-0.337046
-0.173826		0.785842		-0.333174
-0.173477		0.88588		-0.329521
[...]
POINT_DATA	6318
SCALARS u_x double 1
LOOKUP_TABLE  table1
0
0
-0.0517411
-0.0549247
0.00609588
0.000759339
0.00905613
-0.0434994
0.00903537
0.000740526
0.0061007
-0.0460446
0
0
0.683436
0.683428
0.474669
-0.00740786
-0.0127106
0.549576
0.133252
-0.00502991
0.47394
0.685665
0.685514
-0.0106485
0.54779
0.131831
-0.00412982
-0.00657212
-0.282596
-0.280153
-0.280153
-0.00412995
-0.282596
-0.00657265
-0.282431
-0.00668091
-0.279357
-0.00447075
-0.0114589
-0.287484
-0.243563
-0.23186
0
0
0
0
0
0
0
0
0
0
0
0
0
0
0
0
0
0
0
0
0
0
-0.0550108
-0.0563027
-0.0569683
-0.0565475
-0.0551466
-0.0540364
-0.0532392
-0.0537171
-0.0548213
-0.0554884
-0.0560931
-0.0574594
-0.0585404
-0.0575792
-0.0293479
-0.0121357
-0.000959607
0.00596019
0.00960823
0.0109099
0.010831
0.010112
0.00919274
0.00830051
0.00752618
0.00690289
0.00643704
0.00474324
0.00338297
0.00214304
0.00113683
0.000425669
-6.53701e-07
-0.000205365
-0.000241715
-0.000112688
0.000212625
0.00159519
0.00285314
0.00467449
0.00691628
0.00959497
0.0102294
0.010539
0.00982001
0.00697701
0.000853558
-0.00965202
-0.0265747
-0.0477574
-0.0494079
-0.0515806
-0.0483784
-0.0462623
-0.0448334
0.00610209
0.00610368
0.00609912
0.000710568
0.000708956
0.000720945
0.00911156
0.00914057
0.00912191
0
0
0
0
0
0
-0.0233459
-0.00851807
0.00124485
0.00716371
0.00991603
0.0105753
0.0102332
0.00958477
0.0068968
0.00465206
0.00283093
0.00157676
0.000181638
-0.000169209
-0.000332052
-0.000332887
-0.000158135
0.00025947
0.000989964
0.00203859
0.00332711
0.00472437
0.00642052
0.00685379
0.00742492
0.00812952
0.00893939
0.00976944
0.0104012
0.0104039
0.00904552
0.00540039
-0.00131533
-0.0116273
-0.0269514
-0.0489055
-0.048287
-0.0484986
-0.0472691
-0.046213
-0.0458481
-0.0452689
-0.044401
-0.0450811
-0.0457936
-0.0463778
-0.0471761
-0.0465048
-0.0460472
0
0
0
0
0
0
0
0
0
0
0
0
0
0
0
0
0
0
0
0
0
0
0.683777
0.683958
0.683976
0.683864
0.68362
0.683296
0.68299
0.682828
0.682869
0.683008
0.683313
0.642145
0.60045
0.558568
0.516584
0.421102
0.367634
0.314099
0.260523
0.206978
0.153511
0.100137
0.0466777
-0.00756189
-0.00802172
-0.00847928
-0.00876555
-0.00907905
-0.00928694
-0.00952772
-0.0098196
-0.00997254
-0.0103256
-0.0106138
-0.0108612
-0.011199
-0.0115094
0.0416315
0.0954343
0.14901
0.202699
0.256425
0.310124
0.363747
0.417251
0.470662
0.524021
0.577366
0.630703
0.542166
0.520661
0.486817
0.443071
0.392508
0.338714
0.285252
0.235759
0.193314
0.160784
0.140294
0.140291
0.160879
0.193612
0.236286
0.285997
0.339452
0.393126
0.443463
0.48701
0.520822
0.542217
0.132148
0.132535
0.132922
0.549107
0.548682
0.548258
0.685038
0.684544
0.684051
0.684035
0.684475
0.684915
0.474109
0.474298
0.47449
-0.00542424
-0.00593851
-0.00656982
-0.011932
-0.0112634
-0.0107765
0.0475749
0.10062
0.153889
0.207138
0.260376
0.313644
0.367014
0.420503
0.516022
0.558078
0.600294
0.642752
0.68575
0.68606
0.686234
0.686324
0.686212
0.685943
0.685633
0.685375
0.68522
0.68517
0.685266
0.631437
0.577952
0.524455
0.470945
0.41745
0.364007
0.310636
0.257281
0.203892
0.150387
0.096663
0.0430029
-0.010058
-0.00960362
-0.00927687
-0.00896025
-0.00871944
-0.00848127
-0.0081774
-0.00784894
-0.00749968
-0.00711496
-0.00669615
-0.00630576
-0.00589242
-0.0054669
0.540996
0.520871
0.488635
0.446109
0.3962
0.342262
0.288056
0.23738
0.193764
0.16021
0.139083
0.138931
0.160005
0.193561
0.237251
0.288071
0.342311
0.396248
0.446093
0.488582
0.520905
0.540999
-0.0041767
-0.00431568
-0.00454138
-0.00484516
-0.00521529
-0.00563755
-0.00609569
-0.0617769
-0.116982
-0.172186
-0.227391
-0.282119
-0.281661
-0.281238
-0.280868
-0.280564
-0.280339
-0.2802
-0.224948
-0.169744
-0.114539
-0.0593343
-0.224948
-0.169744
-0.114539
-0.0593344
-0.00412993
-0.0041299
-0.00412987
-0.280153
-0.280153
-0.280153
-0.280641
-0.28113
-0.281619
-0.282107
-0.227392
-0.172187
-0.116981
-0.061776
-0.00608392
-0.00559547
-0.00510703
-0.00461852
-0.282597
-0.282596
-0.282592
-0.28258
-0.282544
-0.227285
-0.172137
-0.116993
-0.0618415
-0.00660848
-0.00658481
-0.0065778
-0.00657432
-0.00657321
-0.281735
-0.281073
-0.280465
-0.279898
-0.224372
-0.169386
-0.114402
-0.0594337
-0.00499743
-0.00549695
-0.00595442
-0.00636271
-0.00447817
-0.00448905
-0.00453617
-0.00463305
-0.00482536
-0.0108709
-0.0110105
-0.0111355
-0.0112325
-0.0113005
-0.0113569
-0.0113946
-0.0114191
-0.0114352
-0.0114454
-0.0114514
-0.0114548
-0.0114567
-0.0114578
-0.0114583
-0.0114586
-0.0114587
-0.0114588
-0.0114589
-0.0114589
-0.0109702
-0.0104814
-0.00999246
-0.00950356
-0.00901474
-0.00852602
-0.00803739
-0.00754892
-0.00706047
-0.286995
-0.286506
-0.286017
-0.285528
-0.28504
-0.284551
-0.284062
-0.283573
-0.283084
-0.0666638
-0.121869
-0.177074
-0.232279
-0.287484
-0.287484
-0.287484
-0.287484
-0.287485
-0.287485
-0.287486
-0.287488
-0.28749
-0.287493
-0.287498
-0.287505
-0.287516
-0.287532
-0.287556
-0.287594
-0.287654
-0.287752
-0.287902
-0.288118
-0.288389
-0.288666
-0.288855
-0.288883
-0.288658
-0.288075
-0.28698
-0.28519
-0.283019
-0.280197
-0.276938
-0.273125
-0.268575
-0.263531
-0.258277
-0.252994
-0.24844
-0.245258
-0.243905
-0.243731
-0.243425
-0.243047
-0.242376
-0.241566
-0.240768
-0.239953
-0.239031
-0.238007
-0.2371
-0.236193
-0.235153
-0.233947
-0.232758
-0.231948
-0.233495
-0.236315
-0.240613
-0.245365
-0.250439
-0.255196
-0.25953
-0.263324
-0.266597
-0.269485
-0.271977
-0.274031
-0.275659
-0.276983
-0.277935
-0.278537
-0.278873
-0.279095
-0.279214
-0.279279
-0.27932
-0.279345
-0.279351
-0.0822196
-0.1187
-0.156594
-0.194859
-0.204964
-0.165166
-0.125675
-0.0873372
-0.0384194
-0.0336847
-0.0293926
-0.0253436
-0.0215919
-0.0181966
-0.0152233
-0.0126227
-0.0104768
-0.00871356
-0.0128125
-0.0141323
-0.0160121
-0.0183967
-0.0212747
-0.0246384
-0.0284548
-0.0327859
-0.0373924
-0.0421536
-0.00403023
0.00306388
0.00715639
0.00876358
0.00893927
0.00839904
0.00754634
0.00596096
0.00545039
-0.0151621
0.00664037
-0.0270545
-0.011579
-0.0014323
0.00445242
0.00764996
0.00716245
0.00729717
-5.06163e-05
0.00130515
0.000708178
0.00245449
0.00232513
0.000677553
0.000249391
1.58089e-05
0.00219546
0.00177227
0.00151694
-0.0115852
-0.00660666
0.000943367
-0.0010342
-0.00144416
0.00131852
-0.00819823
-0.0041241
0.00142029
-0.00955187
-0.0117841
-0.0317157
-0.0198541
-0.0246466
-0.0266576
-0.0242663
-0.0205207
-0.0251083
-0.0302263
-0.0271431
-0.0275411
-0.0317782
0.00365918
0.000327961
0.000165829
-1.13534e-05
-0.000130661
-7.00309e-05
0.00133891
0.00237522
0.000835113
0.00628615
0.00402939
0.00259958
0.00153645
-0.0307698
0.0069589
0.00587514
0.00149431
0.00537376
0.00675332
-0.00526563
0.00658291
0.00471778
0.0047644
0.00298492
-0.00206138
0.00458175
0.00534314
-0.00908372
-0.0154936
-0.0134026
-0.0128803
-0.020305
-0.0124701
0.00023799
0.00396103
0.000611763
0.0025434
0.00287111
0.00275552
0.00423623
0.0024996
-0.0010707
0.00278389
-0.00181848
0.00224354
-0.0108562
-0.0090538
-0.00303913
0.00136602
0.00142085
0.00269141
0.00025786
0.00478612
0.00457633
-0.00904358
-0.0252578
-0.00523892
0.00384671
0.0024225
0.00431707
0.0050543
-0.00544165
-0.00401473
0.0023667
0.0013673
-0.0155832
1.03442e-05
0.00259545
-0.0124892
0.0038306
0.00227029
-0.0184061
0.0047269
0.0042476
-0.0172355
-0.00440091
0.00255191
0.0066556
0.00832006
0.00856543
0.00810209
0.00732765
0.00585772
0.00538456
-0.0148624
0.00648716
-0.0256508
-0.0110089
-0.00124438
0.00457106
0.00770189
0.00718806
0.00737361
-8.70675e-05
0.00127143
0.000698227
0.00228196
0.00224189
0.000644285
0.000235576
-2.95576e-05
0.00222998
0.00178736
0.00150685
-0.0118691
-0.00698253
0.00058235
-0.00147503
-0.00163215
0.00135808
-0.00872413
-0.00455111
0.0014249
-0.00980615
-0.011963
-0.0301026
-0.019864
-0.0236177
-0.0250173
-0.0228261
-0.0198269
-0.0238879
-0.0290623
-0.0262447
-0.0262633
-0.030007
0.003596
0.000300755
6.59141e-05
-5.42358e-05
-0.00019664
-0.000157769
0.00124205
0.00229167
0.000815283
0.00628761
0.00402052
0.00258578
0.00152033
-0.0291448
0.0066423
0.00569197
0.000973839
0.00491933
0.00636826
-0.00575712
0.0063333
0.00459839
0.00482511
0.00302524
-0.00208489
0.00461879
0.00539686
-0.00957212
-0.0154524
-0.0136421
-0.0130429
-0.0199329
-0.0128003
0.000194564
0.00388926
0.000506433
0.00247491
0.00287168
0.0024493
0.00409007
0.00205781
-0.00162688
0.00272347
-0.00195676
0.00230396
-0.0107803
-0.00940815
-0.00364599
0.00131278
0.00141426
0.00262922
-0.000242509
0.00453138
0.0043868
-0.00926058
-0.0248271
-0.00582025
0.00386106
0.00244019
0.00422753
0.00501401
-0.00590633
-0.00461377
0.00225575
0.00135479
-0.0152109
-1.29542e-05
0.00253229
-0.0125387
0.00371341
0.00226365
-0.0183158
0.00439285
0.00383955
-0.0170668
-0.0513146
-0.051657
-0.0504124
-0.0480755
-0.0457664
-0.0431184
-0.0413893
-0.0412698
-0.0425492
-0.0446355
-0.0470435
-0.0490236
-0.0495701
-0.0489974
-0.0482893
-0.0483599
-0.047002
-0.0445986
-0.0414768
-0.0381015
-0.0363176
-0.036508
-0.0376852
-0.0401031
-0.0427235
-0.0451289
-0.0463069
-0.0460696
-0.0482144
-0.0482076
-0.0468999
-0.0444139
-0.0424782
-0.0402367
-0.0384926
-0.0381187
-0.0394963
-0.0414813
-0.0438346
-0.0455343
-0.0457538
-0.0455032
-0.0488922
-0.0495273
-0.04968
-0.0490689
-0.0493781
-0.0492559
-0.0492276
-0.049754
-0.0496547
-0.0501457
-0.0510687
-0.0512565
-0.0515584
-0.0517044
-0.0514601
-0.052545
-0.0527161
-0.0522892
-0.0519365
-0.0516584
-0.0516121
-0.0518728
-0.0523388
-0.0527336
-0.0534478
-0.0541481
-0.0538935
-0.0539094
-0.0537651
-0.0550682
-0.0556563
-0.0553047
-0.0545391
-0.054056
-0.0537349
-0.0532134
-0.0545828
-0.055132
-0.0557439
-0.056459
-0.0566688
-0.0557496
0.00642788
0.00690527
0.00754477
0.0083541
0.00931059
0.0103432
0.0112391
0.0115664
0.0105845
0.00729653
0.000768871
-0.0100874
-0.026652
0.00641803
0.00689698
0.00753365
0.00834194
0.00930457
0.0103591
0.011297
0.0116884
0.0107966
0.00762194
0.00122839
-0.00944973
-0.0252958
0.00641887
0.00687939
0.00749308
0.00826816
0.0091842
0.0101726
0.0110242
0.011308
0.0102824
0.00697248
0.000547951
-0.00980092
-0.0245554
0.000155313
-0.000200332
-0.000344278
-0.000323146
-0.000136141
0.000281688
0.001007
0.00204393
0.00333029
0.00473446
0.000131474
-0.000238553
-0.000392894
-0.000382593
-0.000205155
0.000209298
0.000937999
0.00199368
0.00330343
0.00473382
0.000138977
-0.000228718
-0.000389213
-0.00038576
-0.000212646
0.000200846
0.000935582
0.00199236
0.00330154
0.00472449
0.00693867
0.0046188
0.00277706
0.00154428
0.00695658
0.00459375
0.00274967
0.00152055
0.00692861
0.00460838
0.00276661
0.00153493
-0.0238607
-0.00752576
0.00262977
0.00831984
0.0107773
0.0111662
0.0105937
0.00974846
-0.0222564
-0.00681402
0.00321803
0.00877248
0.0110954
0.011374
0.0107142
0.00978947
-0.0214878
-0.00702535
0.00274696
0.0083762
0.0108166
0.0111862
0.010598
0.0097443
0
0
0
0
0
0
0
0
0
0
0
0
0
0
0
0
0
0
0
0
0
0
0
0
0
0
0
0
0
0
0
0
0
0
0
0
0
0
0
0
0
0
0
0
0
0
0
0
0
0
0
0
0
0
0
0
0
0
0
0
0
0
0
0
0
0
0.624937
0.630035
0.637381
0.636452
0.634179
0.639619
0.632159
0.631072
0.638311
0.639174
0.526951
0.368514
0.20195
0.31741
0.0932596
0.473928
0.261206
0.421221
0.146936
0.580737
0.0980967
0.152721
0.208364
0.261877
0.312491
0.0450885
0.365539
0.585815
0.582656
0.183993
0.266551
0.181464
0.493961
0.135097
0.366012
0.392967
0.302921
0.114578
0.109755
0.241427
0.570911
0.497386
0.581332
0.407736
0.532604
0.289433
0.431959
0.526104
0.16085
0.0926849
0.0843704
0.0420811
0.0489569
0.0482169
0.0420028
0.0260219
0.0401095
0.040398
0.0411906
0.0448252
0.0574575
0.0432585
0.440432
0.575011
0.542641
0.498317
0.633567
0.586166
0.593801
0.59266
0.0407152
0.422787
0.473776
0.586278
0.298928
0.201943
0.24544
0.144587
0.368491
0.271875
0.309734
0.150745
0.214747
0.343904
0.0904503
0.0910335
0.0916006
0.0885119
0.131098
0.5552
0.457521
0.397396
0.0954909
0.50853
0.333238
0.240013
0.46569
0.421062
0.184635
0.250336
0.194432
0.344782
0.13271
0.095018
0.139112
0.134356
0.0434293
0.558272
0.14028
0.540883
0.271589
0.385468
0.300734
0.14258
0.595143
0.587682
0.454896
0.225205
0.0987578
0.341835
0.606295
0.0821579
0.548928
0.326179
0.0933133
0.216306
0.0916269
0.529923
0.625868
0.631107
0.638209
0.637124
0.635169
0.641
0.633307
0.63219
0.639007
0.640409
0.527715
0.369366
0.203211
0.318373
0.0941414
0.47471
0.262405
0.422019
0.148144
0.581441
0.0984779
0.153142
0.208745
0.262113
0.312564
0.0454724
0.365633
0.5855
0.582585
0.184952
0.268608
0.181886
0.495285
0.135027
0.368694
0.395158
0.305219
0.114123
0.109074
0.242604
0.571457
0.499291
0.581637
0.410476
0.533655
0.291094
0.434082
0.527151
0.160866
0.0918935
0.0837674
0.0421217
0.0487084
0.0480579
0.0420551
0.0263652
0.0400734
0.0402346
0.0412463
0.044746
0.0571584
0.0431054
0.440641
0.575657
0.543214
0.498785
0.634294
0.587084
0.594637
0.593582
0.0411688
0.424177
0.475051
0.587064
0.300484
0.20327
0.246881
0.145591
0.370046
0.272505
0.31019
0.151172
0.215402
0.344604
0.0906095
0.0910168
0.0920196
0.0884541
0.131062
0.555772
0.458884
0.398611
0.0956645
0.510074
0.33538
0.241621
0.467507
0.423061
0.185799
0.251313
0.195126
0.346342
0.132293
0.0948863
0.139557
0.134502
0.0435636
0.559311
0.141032
0.542168
0.273281
0.387542
0.301872
0.142912
0.595918
0.587358
0.457306
0.226705
0.0980425
0.343971
0.607108
0.0817909
0.550145
0.327538
0.0930907
0.217733
0.0916735
0.531011
0.13997
0.1606
0.19338
0.236135
0.285993
0.339648
0.393501
0.443872
0.48729
0.52075
0.541881
0.1396
0.16038
0.19343
0.23651
0.286676
0.340532
0.394398
0.444601
0.487717
0.520797
0.54159
0.139235
0.160166
0.193485
0.236881
0.287352
0.341407
0.395286
0.445321
0.488135
0.520837
0.541296
0.54191
0.520838
0.487444
0.444132
0.393913
0.340163
0.286511
0.236553
0.193663
0.160737
0.140017
0.541598
0.520832
0.487804
0.444765
0.394642
0.340838
0.287013
0.236826
0.193686
0.160547
0.139685
0.54129
0.520833
0.488173
0.445408
0.395381
0.341521
0.287522
0.237101
0.193712
0.160359
0.139357
0.683908
0.683797
0.683743
0.683738
0.683829
0.683978
0.684132
0.684244
0.684287
0.68425
0.684101
0.684528
0.684531
0.68455
0.684576
0.684603
0.684623
0.684631
0.684624
0.684602
0.684566
0.684522
0.68515
0.685266
0.685357
0.685414
0.685375
0.685266
0.685128
0.685002
0.684914
0.684881
0.684943
0.516437
0.558428
0.6004
0.642323
0.516295
0.558313
0.600362
0.642442
0.516157
0.558203
0.600329
0.642564
0.0469224
0.100313
0.153616
0.20701
0.260472
0.313964
0.36746
0.420952
0.0470794
0.10035
0.153676
0.207038
0.260432
0.313858
0.367315
0.420794
0.0472296
0.100408
0.153746
0.207075
0.260401
0.313758
0.367174
0.420641
0.630994
0.577564
0.524145
0.470736
0.417299
0.363808
0.310255
0.256648
0.203018
0.149421
0.0959067
0.0422807
0.631071
0.577661
0.524242
0.470809
0.417359
0.363888
0.310394
0.25687
0.203315
0.149723
0.0960836
0.0423752
0.631146
0.577757
0.524336
0.47088
0.417415
0.363963
0.310527
0.257084
0.203603
0.150013
0.0962443
0.0424708
-0.0114498
-0.0109922
-0.0105862
-0.0102364
-0.0098892
-0.00962216
-0.00934558
-0.00904164
-0.00874941
-0.00844467
-0.00812539
-0.00778948
-0.00742337
-0.00704789
-0.0109021
-0.0104844
-0.0101203
-0.00979937
-0.00949931
-0.00920825
-0.00891646
-0.00863114
-0.00832519
-0.00799697
-0.00765425
-0.00729481
-0.00692155
-0.00654078
-0.0103638
-0.00994399
-0.00963792
-0.00935969
-0.00911292
-0.00880678
-0.00851915
-0.00822983
-0.00792431
-0.00757515
-0.00720523
-0.00682328
-0.00641315
-0.00601333
-0.00575213
-0.00613826
-0.00659459
-0.00694305
-0.00734791
-0.00768642
-0.00801692
-0.00832907
-0.00859636
-0.00886432
-0.00907978
-0.00936985
-0.00965573
-0.0100815
-0.00617834
-0.0065857
-0.00701364
-0.00735919
-0.00773074
-0.00805268
-0.00833185
-0.00863018
-0.00888155
-0.00915045
-0.00939292
-0.00966427
-0.00992889
-0.0103448
-0.0068036
-0.00725279
-0.00762892
-0.00793611
-0.00835354
-0.00860331
-0.0088724
-0.00919594
-0.00937004
-0.00960911
-0.00989134
-0.0101357
-0.0103773
-0.0107922
-0.0593812
-0.0595202
-0.0597459
-0.0600497
-0.0604199
-0.0608422
-0.0613004
-0.114586
-0.114725
-0.114951
-0.115254
-0.115624
-0.116047
-0.116505
-0.169791
-0.16993
-0.170155
-0.170459
-0.170829
-0.171251
-0.17171
-0.224995
-0.225134
-0.22536
-0.225664
-0.226034
-0.226456
-0.226914
-0.224948
-0.169744
-0.114539
-0.0593344
-0.224948
-0.169744
-0.114539
-0.0593343
-0.224948
-0.169744
-0.114539
-0.0593343
-0.225437
-0.225925
-0.226414
-0.226903
-0.170232
-0.170721
-0.171209
-0.171698
-0.115028
-0.115516
-0.116005
-0.116493
-0.059823
-0.0603115
-0.0607999
-0.0612882
-0.227395
-0.227395
-0.227392
-0.227381
-0.227348
-0.172189
-0.172188
-0.172185
-0.172181
-0.172166
-0.116981
-0.11698
-0.116978
-0.116976
-0.116974
-0.0617746
-0.0617741
-0.0617739
-0.0617785
-0.0617958
-0.226644
-0.226041
-0.225463
-0.224906
-0.171558
-0.171009
-0.170461
-0.16992
-0.116496
-0.115997
-0.11547
-0.114941
-0.061432
-0.0609736
-0.0604849
-0.0599658
-0.0045459
-0.00455731
-0.0045855
-0.00459057
-0.00527244
-0.00478522
-0.00565989
-0.00598405
-0.00493739
-0.00637357
-0.00615029
-0.00720357
-0.0075604
-0.00787644
-0.00779267
-0.00828139
-0.00518745
-0.00570997
-0.00599501
-0.00646668
-0.00687402
-0.00890396
-0.00930128
-0.0102123
-0.00730964
-0.00877017
-0.00926022
-0.0102692
-0.0108044
-0.00683565
-0.00653558
-0.00632969
-0.0110212
-0.0109817
-0.0110299
-0.0109545
-0.0108669
-0.0107277
-0.0109167
-0.0110013
-0.0110131
-0.0110257
-0.0110282
-0.0110314
-0.0110321
-0.0110343
-0.0107994
-0.0110308
-0.011033
-0.0070323
-0.00521468
-0.00513821
-0.00501908
-0.00704343
-0.00702119
-0.00701781
-0.00706433
-0.00703393
-0.0061052
-0.00565377
-0.00504181
-0.00499556
-0.00660911
-0.00454338
-0.00821919
-0.00560065
-0.00971515
-0.00975573
-0.00592982
-0.00803632
-0.00729584
-0.00854778
-0.00534622
-0.00585541
-0.0092234
-0.00901516
-0.00755306
-0.00765398
-0.00852554
-0.00614786
-0.00694279
-0.00657762
-0.00708022
-0.00633443
-0.00681264
-0.00703411
-0.0106016
-0.0106009
-0.010568
-0.0105895
-0.0105954
-0.0105482
-0.0110652
-0.0105196
-0.0104812
-0.0105809
-0.0104335
-0.0103701
-0.0105987
-0.0106023
-0.010588
-0.0106029
-0.010583
-0.00745312
-0.00566355
-0.00549736
-0.00745944
-0.00746346
-0.00747301
-0.0074609
-0.00639016
-0.0105671
-0.00685005
-0.00496155
-0.00612513
-0.00568935
-0.00950868
-0.00840804
-0.00740457
-0.00828016
-0.00632274
-0.00877201
-0.00703894
-0.00668861
-0.00779513
-0.00882825
-0.01001
-0.00802659
-0.0096962
-0.0060948
-0.00731983
-0.00544355
-0.010224
-0.0101334
-0.0101563
-0.0101469
-0.0101741
-0.0101632
-0.0101725
-0.0101134
-0.0101672
-0.0101702
-0.0101723
-0.0100835
-0.010087
-0.0101587
-0.0100521
-0.0100147
-0.00679321
-0.00657436
-0.00747968
-0.00789
-0.00788689
-0.00591844
-0.00789397
-0.00789842
-0.00494312
-0.0066125
-0.00538144
-0.00598877
-0.00708313
-0.0058115
-0.00822641
-0.00865081
-0.00976605
-0.00852067
-0.00682052
-0.00713491
-0.00926951
-0.00803463
-0.00906997
-0.0095672
-0.0049256
-0.00578103
-0.00781222
-0.00755701
-0.00999367
-0.010203
-0.00976187
-0.00974188
-0.00974431
-0.00971329
-0.00970961
-0.00973892
-0.00971587
-0.00972743
-0.00974047
-0.00963216
-0.00965315
-0.00970003
-0.00968168
-0.00974366
-0.00491217
-0.00720194
-0.0063339
-0.00706359
-0.00790586
-0.00790893
-0.00834151
-0.0083491
-0.00835242
-0.0106713
-0.00683664
-0.00563392
-0.00535556
-0.00731455
-0.00756767
-0.0080434
-0.00845982
-0.00888579
-0.009275
-0.00902083
-0.00825261
-0.00778097
-0.00612063
-0.0068227
-0.00930931
-0.00929857
-0.00928178
-0.00929292
-0.0093137
-0.00926607
-0.00926183
-0.0091819
-0.00926196
-0.00926689
-0.00931988
-0.00924618
-0.00924954
-0.00730681
-0.00836271
-0.00751422
-0.0083532
-0.00880762
-0.00880718
-0.00792914
-0.00707077
-0.0063692
-0.00522077
-0.00756009
-0.00830332
-0.00867993
-0.00752117
-0.00953246
-0.00874618
-0.00659229
-0.00799046
-0.00885159
-0.00886722
-0.00883041
-0.0088869
-0.00893918
-0.00881589
-0.00880664
-0.00881804
-0.00880684
-0.00758107
-0.00733432
-0.00787541
-0.00837326
-0.00837077
-0.00795399
-0.00615051
-0.00791167
-0.00840555
-0.00842595
-0.00845032
-0.00841658
-0.00887088
-0.00590947
-0.00803976
-0.00544889
-0.00651133
-0.00573442
-0.23179
-0.231301
-0.230812
-0.230323
-0.229835
-0.229346
-0.228857
-0.228368
-0.22788
-0.176585
-0.176096
-0.175607
-0.175118
-0.17463
-0.174141
-0.173652
-0.173163
-0.172675
-0.12138
-0.120891
-0.120402
-0.119913
-0.119425
-0.118936
-0.118447
-0.117959
-0.11747
-0.0661751
-0.0656863