# vtk DataFile Version 3.0
The density field of the optimized results
ASCII
DATASET UNSTRUCTURED_GRID

POINTS	11358	double
15.0001		34.9865		-0.258123
14.9999		35.0135		4.74187
14.9998		-34.9987		4.9989
15.0002		-35.0013		-0.00111703
10.0001		-34.9989		4.9989
9.99991		-35.001		-0.00108977
10.0001		34.9865		-0.258273
9.99995		35.0135		4.74173
-9.99989		35.0135		4.74187
-10.0001		-34.999		4.9989
-9.9999		-35.001		-0.00105452
-10.0001		34.9865		-0.25813
-14.9999		35.0135		4.7421
-14.9998		-34.9987		4.99893
-15.0002		-35.0013		-0.00108583
-15.0001		34.9865		-0.257902
-2.49996		35.0136		4.7417
-2.50003		34.9864		-0.258303
-14.9999		40.0136		4.71491
-15.0001		39.9864		-0.285043
15		40.0136		4.71467
15.0001		39.9864		-0.285268
2.5		34.9864		-0.258342
2.50001		35.0136		4.74166
2.49993		-34.9991		4.99912
2.50009		-35.0009		-0.000870196
-2.49989		-34.9991		4.99911
-2.50008		-35.0009		-0.000877458
15		-40		5
15		-40		0
-15		-40		5
-15		-40		0
15.0001		34.9919		0.741881
15		34.9973		1.74188
15		35.0027		2.74188
15		35.0081		3.74188
14.9999		34.0135		4.74729
14.9999		33.0135		4.75269
14.9999		32.0134		4.75808
14.9999		31.0134		4.76346
14.9999		30.0133		4.76881
14.9999		29.0133		4.77415
14.9999		28.0132		4.77947
14.9999		27.0132		4.78477
14.9999		26.0131		4.79005
14.9999		25.0131		4.7953
14.9999		24.013		4.80052
14.9999		23.0129		4.80572
14.9999		22.0128		4.81088
14.9999		21.0128		4.81601
14.9999		20.0127		4.82111
14.9999		19.0126		4.82617
14.9999		18.0125		4.8312
14.9999		17.0124		4.83618
14.9999		16.0123		4.84113
14.9999		15.0122		4.84604
14.9999		14.0121		4.85089
14.9999		13.012		4.8557
14.9999		12.0118		4.86047
14.9999		11.0117		4.86518
14.9999		10.0116		4.86985
14.9999		9.01144		4.87446
14.9999		8.01129		4.87903
14.9998		7.01115		4.88353
14.9999		6.01101		4.88797
14.9998		5.01085		4.89235
14.9998		4.0107		4.89667
14.9998		3.01054		4.90093
14.9998		2.01037		4.90512
14.9998		1.01021		4.90925
14.9998		0.0100317		4.9133
14.9998		-0.990145		4.91729
14.9998		-1.99033		4.92121
14.9998		-2.99051		4.92505
14.9998		-3.9907		4.92882
14.9998		-4.9909		4.93251
14.9998		-5.9911		4.93612
14.9998		-6.9913		4.93965
14.9998		-7.99151		4.9431
14.9998		-8.99172		4.94647
14.9998		-9.99194		4.94975
14.9998		-10.9922		4.95294
14.9998		-11.9924		4.95604
14.9998		-12.9926		4.95905
14.9998		-13.9928		4.96198
14.9998		-14.9931		4.96481
14.9998		-15.9933		4.96753
14.9998		-16.9936		4.97017
14.9998		-17.9938		4.9727
14.9998		-18.9941		4.97513
14.9998		-19.9943		4.97746
14.9998		-20.9946		4.97969
14.9998		-21.9949		4.98181
14.9998		-22.9951		4.98382
14.9998		-23.9954		4.98572
14.9998		-24.9957		4.98751
14.9998		-25.996		4.98919
14.9998		-26.9963		4.99076
14.9998		-27.9965		4.9922
14.9998		-28.9968		4.99353
14.9998		-29.9971		4.99474
14.9998		-30.9975		4.99582
14.9997		-31.9978		4.99678
14.9998		-32.9981		4.99761
14.9998		-33.9984		4.99832
14.9998		-34.9992		3.99897
14.9999		-34.9997		2.99901
15.0001		-35.0003		1.999
15.0002		-35.0008		0.998961
15.0003		-34.0016		-0.00168241
15.0003		-33.0019		-0.00239298
15.0003		-32.0022		-0.00322414
15.0003		-31.0025		-0.00417732
15.0003		-30.0028		-0.0052557
15.0003		-29.0031		-0.00646344
15.0002		-28.0034		-0.00779592
15.0002		-27.0037		-0.00924349
15.0002		-26.004		-0.0108079
15.0002		-25.0043		-0.0124832
15.0002		-24.0046		-0.0142712
15.0002		-23.0049		-0.0161761
15.0002		-22.0051		-0.0181923
15.0002		-21.0054		-0.0203098
15.0002		-20.0057		-0.022536
15.0002		-19.0059		-0.0248693
15.0002		-18.0062		-0.0272985
15.0002		-17.0064		-0.0298324
15.0002		-16.0067		-0.0324684
15.0002		-15.0069		-0.0351978
15.0002		-14.0072		-0.0380229
15.0002		-13.0074		-0.0409454
15.0002		-12.0076		-0.0439597
15.0002		-11.0078		-0.0470629
15.0002		-10.0081		-0.0502517
15.0002		-9.00828		-0.0535285
15.0002		-8.00849		-0.0568955
15.0002		-7.00869		-0.0603496
15.0002		-6.0089		-0.0638812
15.0002		-5.0091		-0.0674905
15.0002		-4.00929		-0.0711804
15.0002		-3.00948		-0.0749483
15.0002		-2.00967		-0.0787917
15.0002		-1.00985		-0.0827058
15.0002		-0.0100294		-0.0866928
15.0002		0.989799		-0.0907516
15.0002		1.98963		-0.0948776
15.0002		2.98947		-0.0990712
15.0002		3.98931		-0.103329
15.0002		4.98915		-0.107649
15.0002		5.989		-0.112032
15.0002		6.98885		-0.116476
15.0002		7.98871		-0.120974
15.0002		8.98857		-0.125531
15.0002		9.98843		-0.130143
15.0002		10.9883		-0.13481
15.0002		11.9882		-0.139526
15.0001		12.9881		-0.144292
15.0001		13.9879		-0.149106
15.0001		14.9878		-0.153964
15.0001		15.9877		-0.158868
15.0001		16.9876		-0.163814
15.0001		17.9875		-0.168802
15.0001		18.9874		-0.173828
15.0001		19.9873		-0.17889
15.0001		20.9872		-0.183989
15.0001		21.9872		-0.189121
15.0001		22.9871		-0.194285
15.0001		23.987		-0.19948
15.0001		24.9869		-0.204704
15.0001		25.9869		-0.209956
15.0001		26.9868		-0.21523
15.0001		27.9868		-0.220528
15.0001		28.9867		-0.225847
15.0001		29.9867		-0.231187
15.0001		30.9866		-0.236545
15.0001		31.9866		-0.241919
15.0001		32.9865		-0.247308
15.0001		33.9865		-0.25271
10		-34.9994		3.99898
10		-34.9998		2.99903
10		-35.0002		1.99903
9.99997		-35.0006		0.998986
11		-35.0012		-0.00120898
12		-35.0013		-0.00123918
13.0001		-35.0013		-0.00123185
14.0002		-35.0013		-0.00119286
13.9998		-34.9987		4.99881
12.9999		-34.9987		4.99877
12		-34.9987		4.99876
11.0001		-34.9988		4.99879
11.0001		34.9865		-0.258248
12.0001		34.9865		-0.258221
13.0001		34.9865		-0.258192
14.0001		34.9865		-0.258159
9.99986		-34.0015		-0.00172879
9.99985		-33.0019		-0.00244403
9.99984		-32.0022		-0.00329987
9.99984		-31.0025		-0.00425463
9.99984		-30.0028		-0.00532862
9.99984		-29.0031		-0.00653589
9.99984		-28.0034		-0.00787378
9.99984		-27.0037		-0.00930453
9.99985		-26.004		-0.0108768
9.99985		-25.0043		-0.0125634
9.99986		-24.0046		-0.0143618
9.99986		-23.0049		-0.0162672
9.99987		-22.0051		-0.0182859
9.99987		-21.0054		-0.0204048
9.99986		-20.0057		-0.0226367
9.99986		-19.0059		-0.0249596
9.99988		-18.0062		-0.0273942
9.99987		-17.0064		-0.0299338
9.99987		-16.0067		-0.0325692
9.99989		-15.0069		-0.0353053
9.99989		-14.0072		-0.0381283
9.99989		-13.0074		-0.0410475
9.99989		-12.0076		-0.0440615
9.9999		-11.0078		-0.0471659
9.9999		-10.0081		-0.0503595
9.9999		-9.00828		-0.0536426
9.99991		-8.00849		-0.0570058
9.99991		-7.00869		-0.0604498
9.99991		-6.00889		-0.0639809
9.99991		-5.00908		-0.0675885
9.99992		-4.00929		-0.0712828
9.99993		-3.00948		-0.0750537
9.99993		-2.00966		-0.0789004
9.99994		-1.00984		-0.0828195
9.99994		-0.0100201		-0.0867997
9.99994		0.989805		-0.0908576
9.99995		1.98963		-0.0949873
9.99995		2.98947		-0.099181
9.99995		3.98931		-0.103442
9.99996		4.98915		-0.107762
9.99996		5.989		-0.112141
9.99996		6.98885		-0.116589
9.99997		7.98871		-0.121088
9.99997		8.98857		-0.125647
9.99997		9.98843		-0.130257
9.99998		10.9883		-0.134923
9.99999		11.9882		-0.139643
9.99999		12.988		-0.144406
9.99999		13.9879		-0.149224
9.99999		14.9878		-0.154085
9.99999		15.9877		-0.158992
10		16.9876		-0.163941
10		17.9875		-0.16893
10		18.9874		-0.173953
10		19.9873		-0.179017
10		20.9872		-0.184117
10		21.9872		-0.189253
10		22.9871		-0.194417
10		23.987		-0.199614
10		24.9869		-0.204842
10		25.9869		-0.21009
10		26.9868		-0.215365
10		27.9868		-0.220666
10		28.9867		-0.225988
10		29.9867		-0.23133
10.0001		30.9866		-0.23669
10.0001		31.9866		-0.242065
10.0001		32.9865		-0.247457
10.0001		33.9865		-0.25286
10		34.9919		0.741731
10		34.9973		1.74173
10		35.0027		2.74173
9.99997		35.0081		3.74173
10.9999		35.0135		4.74175
11.9999		35.0135		4.74178
12.9999		35.0135		4.74181
13.9999		35.0135		4.74184
9.99995		34.0135		4.74714
9.99995		33.0135		4.75254
9.99996		32.0134		4.75793
9.99996		31.0134		4.76331
9.99996		30.0133		4.76867
9.99997		29.0133		4.77401
9.99997		28.0132		4.77933
9.99998		27.0132		4.78463
9.99998		26.0131		4.78991
9.99998		25.0131		4.79516
9.99999		24.013		4.80039
9.99999		23.0129		4.80558
9.99999		22.0128		4.81075
10		21.0128		4.81588
10		20.0127		4.82098
10		19.0126		4.82604
10		18.0125		4.83107
10		17.0124		4.83606
10		16.0123		4.84101
10		15.0122		4.84591
10		14.0121		4.85078
10		13.0119		4.85559
10		12.0118		4.86036
10		11.0117		4.86507
10		10.0116		4.86974
10.0001		9.01144		4.87436
10.0001		8.0113		4.87891
10.0001		7.01116		4.88341
10.0001		6.01101		4.88786
10.0001		5.01086		4.89224
10.0001		4.0107		4.89656
10.0001		3.01055		4.90082
10.0001		2.01038		4.90501
10.0001		1.01021		4.90914
10.0001		0.0100372		4.9132
10.0001		-0.990139		4.91719
10.0001		-1.99032		4.92111
10.0001		-2.99051		4.92495
10.0001		-3.9907		4.92871
10.0001		-4.99089		4.93241
10.0001		-5.99109		4.93602
10.0001		-6.99129		4.93955
10.0001		-7.9915		4.943
10.0001		-8.99171		4.94636
10.0001		-9.99193		4.94964
10.0001		-10.9921		4.95283
10.0001		-11.9924		4.95594
10.0001		-12.9926		4.95895
10.0001		-13.9928		4.96187
10.0001		-14.9931		4.96469
10.0001		-15.9933		4.96743
10.0001		-16.9936		4.97006
10.0001		-17.9938		4.97261
10.0001		-18.9941		4.97504
10.0001		-19.9943		4.97737
10.0001		-20.9946		4.9796
10.0001		-21.9949		4.98172
10.0002		-22.9951		4.98374
10.0002		-23.9954		4.98564
10.0002		-24.9957		4.98744
10.0002		-25.996		4.98912
10.0002		-26.9963		4.99069
10.0002		-27.9965		4.99213
10.0002		-28.9968		4.99346
10.0002		-29.9971		4.99467
10.0002		-30.9975		4.99576
10.0002		-31.9978		4.99671
10.0002		-32.9981		4.99755
10.0002		-33.9985		4.99828
-9.9999		34.0135		4.74729
-9.9999		33.0135		4.75269
-9.9999		32.0134		4.75808
-9.9999		31.0134		4.76345
-9.9999		30.0133		4.76881
-9.99991		29.0133		4.77415
-9.99991		28.0132		4.77947
-9.99991		27.0132		4.78477
-9.99992		26.0131		4.79005
-9.99992		25.0131		4.7953
-9.99992		24.013		4.80052
-9.99992		23.0129		4.80572
-9.99993		22.0128		4.81088
-9.99993		21.0128		4.81601
-9.99994		20.0127		4.82111
-9.99994		19.0126		4.82618
-9.99994		18.0125		4.8312
-9.99995		17.0124		4.83619
-9.99995		16.0123		4.84114
-9.99996		15.0122		4.84604
-9.99996		14.0121		4.8509
-9.99996		13.0119		4.85571
-9.99996		12.0118		4.86048
-9.99997		11.0117		4.86519
-9.99997		10.0116		4.86986
-9.99998		9.01143		4.87447
-9.99998		8.01129		4.87903
[...]
POINT_DATA	11358
SCALARS u_x double 1
LOOKUP_TABLE  table1
9.8053e-05
-8.00445e-05
-0.000243429
0.000242175
0.000113085
-9.2636e-05
6.85515e-05
-5.39009e-05
0.000106701
-5.6344e-05
9.54301e-05
-9.31936e-05
0.000135847
0.000247682
-0.000243699
-0.000118489
4.13029e-05
-2.70403e-05
9.93174e-05
-0.000111754
-4.63165e-05
8.64451e-05
2.58139e-06
1.10533e-05
-7.41456e-05
9.38072e-05
0.000111866
-8.16006e-05
0
0
0
0
6.27457e-05
2.63511e-05
-9.25727e-06
-4.51416e-05
-8.51511e-05
-8.8707e-05
-9.17558e-05
-9.47575e-05
-9.70889e-05
-9.8475e-05
-0.00010183
-0.000106243
-0.000105388
-0.000109911
-0.000110461
-0.000112253
-0.000114874
-0.00011793
-0.000117275
-0.000121499
-0.000124036
-0.000124252
-0.000124846
-0.00012654
-0.000129532
-0.000128841
-0.000131699
-0.000132328
-0.000133778
-0.000139466
-0.000141569
-0.000150945
-0.000149656
-0.00015264
-0.000155741
-0.000158766
-0.000165214
-0.000169729
-0.000172425
-0.000175149
-0.000178166
-0.000179878
-0.000183308
-0.000187477
-0.000191195
-0.000196196
-0.000199478
-0.000202574
-0.000207521
-0.000210884
-0.00021402
-0.000217544
-0.000220281
-0.00022195
-0.000223454
-0.000222753
-0.000233575
-0.00022826
-0.000225125
-0.00022458
-0.000224767
-0.000226026
-0.000225451
-0.000231453
-0.000233089
-0.000234819
-0.000236182
-0.000237324
-0.000244495
-0.000246115
-0.000252035
-0.000249703
-0.000248937
-0.000160284
-5.26707e-05
5.67894e-05
0.000158313
0.000263944
0.000261733
0.00026239
0.000258125
0.000256212
0.000253454
0.000247805
0.000242428
0.000238318
0.000235087
0.000235842
0.000234381
0.000230762
0.000225539
0.000225469
0.000225812
0.000221784
0.000218641
0.000216163
0.000212344
0.00020879
0.000206535
0.000203215
0.000200062
0.000199037
0.000197626
0.000195456
0.000193009
0.000188139
0.000184065
0.000181021
0.000181611
0.000182042
0.000182059
0.000180289
0.000179046
0.000175834
0.000173987
0.000171115
0.000168412
0.000166954
0.000166303
0.000163356
0.000160751
0.000158726
0.000155807
0.000151989
0.000148923
0.000146648
0.000143148
0.000141465
0.000140467
0.000138005
0.000134399
0.000130976
0.000127865
0.000124808
0.000122079
0.000120022
0.000118266
0.00011578
0.000114616
0.000112064
0.000110146
0.000108418
0.000107007
0.000105673
0.000103687
0.000101608
1.82198e-05
6.9042e-06
-1.51013e-06
-2.72231e-05
-3.89883e-05
1.73049e-05
9.4267e-05
0.000168317
-0.000166857
-8.8187e-05
-1.40551e-05
5.55903e-05
7.46069e-05
8.03774e-05
8.65078e-05
9.23076e-05
-0.000136684
-0.000153919
-0.000160566
-0.000159735
-0.000164503
-0.000164152
-0.000156579
-0.000158049
-0.000154369
-0.000149844
-0.000143674
-0.000138091
-0.00013149
-0.000133931
-0.000138448
-0.000136263
-0.00012429
-0.000129192
-0.000127436
-0.00011394
-0.000113205
-0.000110754
-0.000108889
-9.75054e-05
-0.000101782
-9.64206e-05
-9.42755e-05
-9.48637e-05
-9.36478e-05
-9.19957e-05
-7.71419e-05
-7.26865e-05
-7.4114e-05
-6.47572e-05
-5.89656e-05
-5.59482e-05
-4.91112e-05
-4.7803e-05
-4.70621e-05
-3.90736e-05
-3.9722e-05
-3.59384e-05
-3.46588e-05
-2.88832e-05
-2.541e-05
-2.17958e-05
-1.45484e-05
-1.31041e-05
-1.06642e-05
-8.08032e-06
-5.792e-06
-1.13872e-06
4.04358e-06
4.78328e-06
8.85823e-06
9.14981e-06
1.35435e-05
1.8018e-05
2.34253e-05
2.7908e-05
2.96275e-05
3.03832e-05
3.75867e-05
4.16121e-05
4.57966e-05
5.02722e-05
5.35307e-05
6.07549e-05
6.46946e-05
4.6143e-05
2.07312e-05
-4.18314e-06
-2.91805e-05
-5.92045e-05
-6.42396e-05
-6.95836e-05
-7.48842e-05
-5.02155e-05
-4.61554e-05
-4.2436e-05
-3.89133e-05
-3.51558e-05
-3.20855e-05
-2.80255e-05
-2.44317e-05
-2.0818e-05
-1.71059e-05
-1.33966e-05
-9.76473e-06
-5.25951e-06
-1.41072e-06
4.18611e-06
5.54267e-06
1.22538e-05
1.7002e-05
1.91337e-05
2.35615e-05
2.88971e-05
3.40956e-05
3.99855e-05
4.296e-05
4.6546e-05
5.03901e-05
5.42996e-05
5.62727e-05
5.66272e-05
5.9721e-05
6.06518e-05
6.13446e-05
6.38551e-05
6.90863e-05
7.18323e-05
7.49332e-05
7.78682e-05
8.00286e-05
8.0591e-05
8.32454e-05
8.61668e-05
8.78956e-05
8.92224e-05
9.10899e-05
9.30066e-05
9.28941e-05
9.55127e-05
9.95557e-05
0.000104842
0.000108691
0.000104683
0.000111896
0.000121795
0.000125301
0.000130418
0.000133587
0.000143677
0.000151861
0.000155976
0.000159887
0.000166503
0.000167272
0.000170012
0.000171772
0.000178953
0.000183587
0.000166371
0.000173327
0.000163043
0.000104191
0.000102505
0.000100211
9.87274e-05
9.54736e-05
9.24577e-05
8.99542e-05
8.76988e-05
8.49057e-05
8.03105e-05
7.84396e-05
7.66926e-05
7.27575e-05
6.94524e-05
6.49085e-05
6.29399e-05
6.07056e-05
5.45071e-05
5.00872e-05
4.2881e-05
4.20675e-05
4.08358e-05
3.68066e-05
3.39374e-05
2.80828e-05
2.12005e-05
1.52591e-05
7.96281e-06
4.0617e-06
6.97304e-08
-5.14447e-06
-1.15742e-05
-1.60541e-05
-1.94236e-05
-2.52467e-05
-3.18881e-05
-3.85693e-05
-4.24801e-05
-4.62211e-05
-5.13411e-05
-5.73677e-05
-6.52905e-05
-6.7697e-05
-7.15524e-05
-7.48165e-05
-8.13343e-05
-8.24596e-05
-8.82556e-05
-9.32003e-05
-9.42505e-05
-0.000103632
-0.000112138
-0.000118791
-0.000122673
-0.000125728
-0.000126437
-0.000137414
-0.00014263
-0.000147388
-0.00014992
-0.000150129
-0.000151401
-0.000146457
-0.000155895
-0.00016604
-0.000161408
-0.000159162
-0.000153651
-0.000133644
-2.09e-05
-6.37514e-07
6.58834e-06
1.4979e-05
0.000146869
0.000150447
0.000152657
0.000153875
0.000141942
0.000135935
0.000133613
0.0001292
0.000121275
0.000113833
0.000108355
0.000112148
0.000117552
0.000114047
0.000107317
0.000102297
9.74033e-05
9.39388e-05
9.11466e-05
8.86986e-05
8.55523e-05
8.10252e-05
7.59283e-05
7.34295e-05
6.86501e-05
6.53616e-05
6.23197e-05
5.86247e-05
5.39157e-05
5.16909e-05
4.73095e-05
4.66067e-05
4.41624e-05
3.91299e-05
3.48896e-05
3.20653e-05
3.1474e-05
2.70092e-05
2.52684e-05
2.71934e-05
2.36043e-05
2.27984e-05
1.96006e-05
1.60882e-05
1.53848e-05
1.00678e-05
7.47166e-06
6.69438e-06
2.2943e-06
-1.52813e-06
-2.11494e-06
-7.21621e-06
-1.21947e-05
-1.61128e-05
-1.84748e-05
-2.26109e-05
-2.68985e-05
-3.15036e-05
-3.49698e-05
-3.72403e-05
-4.27779e-05
-4.77641e-05
-5.24233e-05
-5.80002e-05
-6.25988e-05
-6.80708e-05
-7.4665e-05
-8.05702e-05
-8.61409e-05
-5.2309e-05
-1.17074e-05
2.83639e-05
6.89221e-05
0.000112621
0.00011861
0.000124328
0.000129879
0.000142504
0.000145595
0.000150624
0.00015437
0.000158492
0.000162627
0.00016536
0.000168252
0.000172335
0.000176051
0.000178544
0.000181363
0.000184038
0.000185814
0.000189054
0.000188154
0.000193756
0.000195096
0.000199585
0.000199533
0.0001988
0.000208188
0.000207915
0.000209474
0.000207615
0.000208182
0.000212663
0.000210377
0.000210666
0.000210859
0.000212497
0.000209524
0.000210399
0.00021479
0.00021747
0.00021949
0.000212053
0.00022149
0.000211865
0.000216314
0.000226482
0.00022095
0.000216481
0.000219263
0.000229885
0.000228022
0.000231088
0.000232634
0.000229874
0.000224431
0.000238997
0.000225077
0.000239086
0.000236387
0.000230614
0.000241392
0.00023451
0.000244766
0.000242293
0.000246676
0.000243794
0.000250953
0.000248618
0.000265156
0.000253798
0.000267167
0.000269917
0.000269686
0.000269123
0.000178074
0.000103351
3.6022e-05
-1.97771e-05
0.000159936
6.01065e-05
-5.52441e-05
-0.000155967
-0.00016599
-8.78829e-05
-1.87439e-05
4.37307e-05
-0.000113537
-0.000107958
-0.000102596
-9.76652e-05
-0.000257335
-0.00027685
-0.000264064
-0.000270372
-0.00027438
-0.000276813
-0.000274277
-0.000277505
-0.000271541
-0.00027163
-0.000267969
-0.000269773
-0.000260708
-0.000264379
-0.00025641
-0.000250933
-0.000250055
-0.000246949
-0.000245777
-0.000241144
-0.000239379
-0.000240084
-0.000238051
-0.000235164
-0.000232115
-0.000229495
-0.000225269
-0.000222726
-0.000221566
-0.000221288
-0.000217146
-0.000214092
-0.000211654
-0.000212318
-0.00020472
-0.00020214
-0.000199364
-0.000194092
-0.000191835
-0.00018977
-0.000178192
-0.000179098
-0.000172014
-0.000166564
-0.000163217
-0.000162455
-0.00015986
-0.000157263
-0.000156602
-0.000151562
-0.000151292
-0.000147691
-0.000142664
-0.000142012
-0.000139726
-0.000135774
-0.000134685
-0.000135117
-0.000133154
-0.000129626
-0.000127905
-0.00012626
-0.000125599
-0.000124976
-0.000123984
-0.000123273
-0.000122687
-0.000121753
-0.000120998
-6.83902e-05
-1.69467e-05
3.42077e-05
8.53659e-05
4.89885e-05
5.80493e-05
6.75359e-05
7.66478e-05
8.60933e-05
9.48272e-05
0.000102369
-8.53467e-05
-7.81381e-05
-7.00915e-05
-6.1502e-05
-5.21292e-05
-4.24168e-05
-3.27592e-05
-1.32609e-05
-5.91693e-08
1.41188e-05
2.78416e-05
0.000130498
0.000124375
0.000117889
0.00010907
5.76115e-05
1.6166e-05
-2.48444e-05
-6.71493e-05
-0.00011134
-0.000112036
-0.000113979
-0.000116453
0.000103139
0.00010443
0.000103635
0.000101257
9.74662e-05
9.28212e-05
8.66553e-05
7.99828e-05
7.35129e-05
6.6228e-05
5.88209e-05
5.1367e-05
4.4111e-05
3.67243e-05
2.9737e-05
2.29413e-05
1.56659e-05
8.06132e-06
6.94915e-07
-6.76505e-06
-1.4244e-05
-2.18307e-05
-2.90795e-05
-3.57114e-05
-4.17578e-05
-4.6792e-05
-5.08183e-05
-5.3183e-05
-5.33474e-05
-5.12516e-05
-2.22463e-05
6.01123e-06
3.08248e-05
5.74703e-05
8.57263e-05
8.4462e-05
8.14546e-05
7.72932e-05
7.21662e-05
6.57956e-05
5.87857e-05
5.11683e-05
4.30317e-05
3.47075e-05
2.63709e-05
1.75303e-05
9.14061e-06
1.12636e-06
-7.20617e-06
-1.5402e-05
-2.32823e-05
-3.13563e-05
-3.97146e-05
-4.83224e-05
-5.68995e-05
-6.53475e-05
-7.39852e-05
-8.20179e-05
-8.96281e-05
-9.63316e-05
-0.000101982
-0.000106346
-0.000109365
-0.000111062
9.56833e-05
9.22501e-05
8.96614e-05
8.79252e-05
-5.52794e-05
-6.47433e-05
-7.09728e-05
-7.59087e-05
6.79123e-05
5.97722e-05
5.00763e-05
4.09516e-05
3.11748e-05
2.1515e-05
1.23123e-05
-3.45267e-06
-8.83285e-06
-1.48207e-05
-2.084e-05
3.48253e-05
2.90332e-05
2.30973e-05
1.72059e-05
9.66885e-06
8.08948e-06
6.93799e-06
5.86676e-06
3.61141e-06
-5.35114e-06
-1.48121e-05
-2.3916e-05
-3.28485e-05
-4.18744e-05
-4.92265e-05
9.26327e-06
6.08621e-06
2.25565e-06
-9.15912e-07
-4.70833e-06
-7.54459e-06
-1.09063e-05
-1.43613e-05
-1.91521e-05
-2.55094e-05
-2.7128e-05
-3.0264e-05
-3.47095e-05
-3.77491e-05
-4.20225e-05
-4.79378e-05
-5.05714e-05
-5.27227e-05
-5.92379e-05
-6.18969e-05
-6.33652e-05
-6.74641e-05
-6.88838e-05
-7.44619e-05
-8.03748e-05
-8.21283e-05
-8.64761e-05
-9.21207e-05
-9.63081e-05
-0.000101822
-0.000105052
-0.000108376
-0.000110851
-0.00011356
-0.000113942
-0.000121445
-0.000130068
-0.00013177
-0.000136401
-0.000140544
-0.000145004
-0.000150227
-0.000152869
-0.000155469
-0.000165224
-0.000174928
-0.000175726
-0.000178144
-0.000180297
-0.000183183
-0.000184311
-0.0001896
-0.000195759
-0.000199975
-0.000202891
-0.000205618
-0.000208862
-0.000207135
-0.000213705
-0.000214171
-0.000216433
-0.000222668
-0.000222274
-0.000221551
-0.000222276
-0.000216612
-0.000210299
-0.000188855
-0.000163134
-2.81801e-05
-7.20595e-06
4.09279e-06
3.20886e-05
0.000162599
0.000196552
0.000215511
0.000209928
0.000206714
0.000201181
0.000194536
0.000191298
0.000180335
0.000172738
0.000176323
0.000174959
0.000167967
0.00016105
0.000154293
0.000150167
0.000148061
0.000146649
0.000145286
0.000143157
0.00014003
0.000135281
0.000133217
0.000128076
0.000122656
0.000115243
0.00011401
0.00011285
0.000110446
0.000106003
0.000101864
9.56659e-05
9.21872e-05
9.27567e-05
9.05238e-05
8.82554e-05
8.68643e-05
8.58996e-05
8.41646e-05
8.19485e-05
7.11255e-05
7.50888e-05
7.00513e-05
6.6436e-05
6.73119e-05
6.61368e-05
6.1008e-05
5.8895e-05
5.2287e-05
5.3571e-05
5.01441e-05
4.65288e-05
4.33699e-05
4.10687e-05
3.80293e-05
3.51233e-05
3.19717e-05
2.91984e-05
2.62222e-05
2.56457e-05
2.22557e-05
1.92411e-05
1.63841e-05
1.58625e-05
1.24554e-05
1.15136e-05
8.36347e-06
5.34609e-06
2.84582e-06
3.16081e-05
1.03395e-05
-1.32942e-05
-3.49601e-05
-6.2621e-05
-2.53337e-05
2.26979e-05
6.08038e-05
-4.54946e-05
-1.38634e-05
2.95623e-05
7.56186e-05
-0.000178239
-0.00020611
-0.000204984
-0.000215473
-0.000225426
-0.000225571
-0.000227893
-0.000226196
-0.000224165
-0.000219204
-0.000221793
-0.000223818
-0.000215181
-0.000224025
-0.000220085
-0.000219412
-0.000209577
-0.00021158
-0.000207092
-0.000197667
-0.000192247
-0.000196869
-0.000186093
-0.000181407
-0.000186511
-0.000183733
-0.000179322
-0.000174664
-0.000177415
-0.000177625
-0.000166222
-0.000162198
-0.00016481
-0.000161076
-0.000157117
-0.000151183
-0.00014221
-0.000140737
-0.000140109
-0.000139096
-0.000132035
-0.000127827
-0.00012195
-0.000119882
-0.00011742
-0.000116197
-0.000107955
-0.000104418
-0.00010027
-9.71744e-05
-9.69425e-05
-9.29163e-05
-9.12959e-05
-8.82205e-05
-8.31255e-05
-7.93998e-05
-7.66159e-05
-7.40088e-05
-6.65008e-05
-6.54297e-05
-5.98944e-05
-5.50004e-05
-5.18249e-05
-4.79673e-05
-4.35822e-05
-4.00289e-05
-3.60821e-05
-3.17624e-05
-2.84769e-05
4.1044e-05
4.32879e-05
4.6125e-05
4.96178e-05
5.31349e-05
5.58443e-05
5.91013e-05
6.1914e-05
6.49884e-05
6.54699e-05
6.81196e-05
7.02562e-05
7.26193e-05
7.4987e-05
7.88514e-05
8.25062e-05
8.64968e-05
9.04055e-05
8.9851e-05
9.17002e-05
9.43954e-05
9.73029e-05
0.000102113
0.000106329
0.00010908
0.000109839
0.000111869
0.000113508
0.000116232
0.000117465
0.000119948
0.000122637
0.000123569
0.000126333
0.000129695
0.000131598
0.00013116
0.000132085
0.000134533
0.000136439
0.000138631
0.000140991
0.000142173
0.000142551
0.000145802
0.000147982
0.000150764
0.000152237
0.000154528
0.000158086
0.000167052
0.000168308
0.000170219
0.000170628
0.000176744
0.000173027
0.000175432
0.000177602
0.000183423
0.000185251
0.000195449
0.000199629
0.000204356
0.000206422
0.000210874
0.000217743
0.000211942
0.000204473
0.000184461
-5.73232e-05
-3.23554e-05
-7.01571e-06
1.38706e-05
2.88668e-05
3.60296e-05
4.05587e-05
-6.27824e-05
-5.1337e-05
-3.6816e-05
-1.8163e-05
2.59735e-06
2.1452e-05
4.23988e-05
-0.000235257
-0.000211054
-0.000181144
-0.000113548
0
0
0
0
0.000130212
0.000178153
0.000212291
0.000238431
-8.43045e-05
-7.22037e-05
-5.16659e-05
-2.99636e-05
-1.17788e-05
1.44627e-06
2.03935e-05
-3.52272e-05
-1.67953e-05
1.19368e-06
2.35384e-05
4.20069e-05
5.8838e-05
7.09889e-05
0.000241524
0.0002154
0.00018661
0.000136466
0
0
0
0
0
0
0
0
0
0
0
0
0
0
0
0
0
0
0
0
0
0
0
0
0
0
0
0
0
0
0
0
0
0
0
0
0
0
0
0
0
0
0
0
0
0
0
0
0
0
0
0
0
0
0
0
0
0
0
0
0
0
0
0
-0.000135595
-0.00018032
-0.000206575
-0.000234682
6.48823e-05
2.59486e-05
-1.06009e-05
-4.92885e-05
6.56519e-05
2.74133e-05
-1.20181e-05
-5.16395e-05
6.56644e-05
2.64355e-05
-1.25929e-05
-5.33889e-05
6.72955e-05
2.7733e-05
-1.58146e-05
-5.57468e-05
6.86971e-05
2.69562e-05
-1.53694e-05
-5.76257e-05
6.93989e-05
2.5362e-05
-1.59779e-05
-5.86493e-05
7.18188e-05
2.45315e-05
-1.75161e-05
-6.0245e-05
7.12097e-05
2.81475e-05
-2.01146e-05
-6.11124e-05
7.17446e-05
2.94974e-05
-1.56345e-05
-6.54758e-05
7.4286e-05
2.80034e-05
-1.88414e-05
-6.57453e-05
7.53565e-05
2.84213e-05
-1.99639e-05
-6.5825e-05
7.714e-05
2.9803e-05
-1.92037e-05
-6.62756e-05
7.89893e-05
2.94511e-05
-1.96979e-05
-6.76946e-05
8.06339e-05
2.9706e-05
-2.15604e-05
-6.90465e-05
8.22428e-05
2.94499e-05
-1.6275e-05
-7.43168e-05
8.50214e-05
3.33787e-05
-1.91688e-05
-7.30733e-05
8.79322e-05
3.55109e-05
-2.31815e-05
-7.25473e-05
8.96752e-05
3.53783e-05
-2.07607e-05
-7.65587e-05
9.11028e-05
3.72272e-05
-1.52729e-05
-7.36957e-05
9.13364e-05
3.70123e-05
-1.90813e-05
-7.49914e-05
9.41757e-05
3.72483e-05
-1.96806e-05
-7.42208e-05
9.54214e-05
3.82214e-05
-1.88269e-05
-7.47342e-05
9.87995e-05
3.80947e-05
-1.82692e-05
-8.17555e-05
0.000100071
4.11402e-05
-1.65091e-05
-7.79943e-05
0.000102933
4.57017e-05
-2.19286e-05
-7.58828e-05
0.000104842
4.38457e-05
-2.14415e-05
-8.07864e-05
0.00010464
4.18849e-05
-1.79249e-05
-8.43365e-05
0.000108615
4.44914e-05
-1.73597e-05
-9.20406e-05
0.000107366
4.1992e-05
-2.45792e-05
-9.04535e-05
0.000108186
4.14349e-05
-2.547e-05
-9.15092e-05
0.000110167
4.12218e-05
-2.59139e-05
-9.36781e-05
0.000111701
4.39171e-05
-2.41198e-05
-9.44604e-05
0.000111545
4.02777e-05
-2.8951e-05
-9.6577e-05
0.000112662
3.74587e-05
-3.39188e-05
-0.000100142
0.000113093
3.66744e-05
-2.36207e-05
-0.000110917
0.00011761
5.05084e-05
-3.32334e-05
-0.000108427
0.000116868
4.32328e-05
-3.2198e-05
-0.000108626
0.000114018
3.8225e-05
-3.29714e-05
-0.000109225
0.000113228
3.63091e-05
-3.73964e-05
-0.000113151
0.000113807
3.53336e-05
-4.04111e-05
-0.000116818
0.000116998
3.81385e-05
-4.0269e-05
-0.00011988
0.000119309
3.81921e-05
-4.60783e-05
-0.000125341
0.00012026
4.05331e-05
-4.25342e-05
-0.000126072
0.000123556
4.11238e-05
-4.17053e-05
-0.000126334
0.000122466
3.90666e-05
-4.24225e-05
-0.000128357
0.000124478
3.67235e-05
-4.62579e-05
-0.000130887
0.000124784
3.45916e-05
-5.09725e-05
-0.000135138
0.000127052
3.28504e-05
-5.78631e-05
-0.000140693
0.000127847
4.07051e-05
-5.26435e-05
-0.000141072
0.000130613
4.58369e-05
-4.35378e-05
-0.000140469
0.000132655
3.91844e-05
-5.12054e-05
-0.000141729
0.000133018
3.67546e-05
-5.37503e-05
-0.000140882
0.000139274
4.79963e-05
-4.16198e-05
-0.000150027
0.000143545
4.83872e-05
-5.2506e-05
-0.000144906
0.000139984
5.03541e-05
-4.74751e-05
-0.000138131
0.000141497
4.66019e-05
-4.63904e-05
-0.000136094
0.000144176
4.60419e-05
-5.1023e-05
-0.000142286
0.000148316
5.61362e-05
-4.35398e-05
-0.000139281
0.000152658
5.70713e-05
-3.91907e-05
-0.000136462
0.000150435
5.15288e-05
-4.25477e-05
-0.000140687
0.000154693
5.66997e-05
-4.14686e-05
-0.000143279
0.000154294
5.44462e-05
-4.23576e-05
-0.000144317
0.000155615
5.12876e-05
-4.91335e-05
-0.000146827
0.000159545
5.76552e-05
-4.45054e-05
-0.000145119
0.000165693
6.20105e-05
-4.171e-05
-0.000142134
0.000166837
5.47488e-05
-5.10405e-05
-0.00014564
0.000166736
5.26726e-05
-3.69916e-05
-0.000165049
0.000169217
5.56669e-05
-5.50177e-05
-0.000154231
0.0001671
6.05251e-05
-5.58537e-05
-0.000158783
7.22963e-06
-8.73318e-07
3.22207e-06
-7.63345e-06
-2.07865e-05
-8.16087e-06
1.237e-05
2.08669e-05
-6.11236e-05
-2.16044e-05
2.04528e-05
6.30569e-05
-0.000108702
-3.76286e-05
3.62513e-05
0.000108723
7.30479e-05
7.95683e-05
8.65284e-05
9.3971e-05
6.99119e-05
7.83133e-05
8.53235e-05
9.47553e-05
6.52174e-05
7.43603e-05
8.6227e-05
9.55466e-05
6.11708e-05
7.33049e-05
8.40921e-05
9.51934e-05
5.95917e-05
7.02838e-05
8.29175e-05
9.55943e-05
5.51381e-05
6.93628e-05
8.23685e-05
9.65944e-05
5.34114e-05
6.80331e-05
8.13418e-05
9.69893e-05
4.87071e-05
6.53998e-05
8.10403e-05
9.77764e-05
4.72061e-05
6.18266e-05
8.13856e-05
9.84152e-05
4.52158e-05
6.32294e-05
8.00524e-05
9.96881e-05
4.4113e-05
6.2028e-05
8.07544e-05
0.000100524
4.15114e-05
5.9507e-05
8.05058e-05
0.000101323
3.50355e-05
5.85276e-05
8.06424e-05
0.000102617
3.44387e-05
5.66722e-05
8.05451e-05
0.000104209
3.28961e-05
5.76177e-05
7.97985e-05
0.000106288
3.0401e-05
5.54914e-05
8.2515e-05
0.000109055
2.77233e-05
5.36561e-05
8.54939e-05
0.000111455
2.99529e-05
5.34708e-05
8.25629e-05
0.000112419
2.57964e-05
5.65134e-05
8.34854e-05
0.000112248
2.35293e-05
5.30957e-05
8.30809e-05
0.000113111
1.95605e-05
5.09078e-05
8.28863e-05
0.000115565
2.04423e-05
4.82223e-05
8.22853e-05
0.000116655
1.66452e-05
5.02744e-05
8.27346e-05
0.000117813
1.82457e-05
4.80784e-05
8.36118e-05
0.000120437
1.106e-05
4.9263e-05
8.46078e-05
0.000122327
1.23809e-05
4.57887e-05
8.42735e-05
0.000122609
4.63568e-06
4.64686e-05
8.55713e-05
0.000124969
5.75803e-06
4.19108e-05
8.55375e-05
0.000126494
8.72862e-07
4.18338e-05
8.33421e-05
0.000125518
1.6166e-06
3.88981e-05
8.32097e-05
0.000126056
-3.12282e-06
4.13899e-05
8.37424e-05
0.000127629
-1.6702e-06
3.80884e-05
8.38363e-05
0.000129619
-7.09441e-06
4.02832e-05
8.41157e-05
0.000130335
-3.18067e-06
3.6965e-05
8.28978e-05
0.000132367
-1.3138e-05
3.80101e-05
8.35622e-05
0.000132394
-1.54442e-05
3.23921e-05
8.23189e-05
0.000132623
-1.69888e-05
2.78712e-05
7.88952e-05
0.000131338
-2.49623e-05
2.81558e-05
7.78571e-05
0.000129758
-2.40854e-05
2.25051e-05
7.56846e-05
0.000127883
-3.26886e-05
2.08704e-05
7.40954e-05
0.000129732
-3.75548e-05
2.07405e-05
7.54177e-05
0.000132842
-3.83788e-05
2.0745e-05
7.67413e-05
0.000137249
-3.6914e-05
2.19971e-05
7.92547e-05
0.00013912
-3.82825e-05
2.54358e-05
8.13365e-05
0.000139429
-4.00768e-05
1.72083e-05
7.99158e-05
0.00014026
-4.05322e-05
1.31439e-05
7.4945e-05
0.000138167
-4.22487e-05
1.89282e-05
7.80606e-05
0.000140729
-4.49819e-05
2.09044e-05
7.94949e-05
0.000143211
-4.95748e-05
1.83085e-05
7.87098e-05
0.000144466
-5.09546e-05
9.51257e-06
7.86693e-05
0.000147262
-5.60974e-05
1.03312e-05
7.91208e-05
0.000149884
-5.99664e-05
1.26203e-05
8.0806e-05