# vtk DataFile Version 3.0
The density field of the optimized results
ASCII
DATASET UNSTRUCTURED_GRID

POINTS	625	double
0.00354479		0.999645		0.000273571
1.01112		1.00119		0.0137401
2.01922		0.998341		0.0475182
2.02337		1.99641		0.0933766
3.02709		1.9927		0.149771
3.02828		0.98882		0.21082
4		1		0
5.01218		0.998537		0.01499
5.02156		-0.00282382		0.0477926
4.02688		-0.00491636		0.0953828
3.0309		-0.00781103		0.150986
2.03213		-0.0111442		0.211934
0.967919		-0.011941		0.211731
-0.0281671		-0.0122384		0.212029
-0.0305009		0.990977		-0.850434
0.972816		0.99144		-0.848887
1.97408		0.993777		-0.906143
1.97618		1.99502		-0.905064
2.97799		1.99664		-0.953129
2.98123		0.997939		-0.951826
3.98811		0.998129		-0.985287
4.98937		1.00079		-0.985863
5		0		-1
4		0		-1
3.02994		-0.00932419		-0.819478
2.02904		-0.00753677		-0.849497
1.02792		-0.00918849		-0.820195
0.0301969		-0.0111448		-0.788976
0.531835		0.490584		0.181143
1.02759		0.49414		0.121717
0.525766		0.994417		0.121121
0.0289807		0.493677		0.122182
0.52541		-0.00428299		0.094803
1.52467		0.496145		0.0704508
1.52282		0.996844		0.0702084
1.52		-0.00213987		0.0481293
2.0217		0.497584		0.069454
2.51636		-0.00108031		0.0294637
2.51532		0.49962		0.0294625
3.01681		0.497818		0.0291267
2.51139		0.999861		0.0150909
2.5075		1.49904		0.00532382
2.50628		2.00004		0.00528933
2.00398		1.49963		0.000191812
3.00653		1.50099		0.00517664
3.4685		0.489369		0.179967
3.47037		0.989479		0.180686
3.47004		-0.0122641		0.211034
3.97109		0.49125		0.150416
4.47217		-0.0104272		0.181262
4.47274		0.492902		0.12163
4.97406		0.493247		0.122115
4.47125		0.992473		0.120884
0.474952		0.994346		-0.905174
0.475873		0.494845		-0.930449
-0.0224715		0.49572		-0.929216
0.980022		0.49732		-0.952066
0.478632		-0.00365242		-0.929107
1.48386		0.49863		-0.970926
1.48487		-0.000466921		-0.971077
1.48295		0.997628		-0.971119
1.98889		0.499361		-0.984871
2.49357		0.99834		-0.994627
2.49409		0.499767		-0.993488
1.99802		1.50029		-0.999604
2.49441		1.50046		-0.994232
2.49841		1.99005		-0.820169
2.99838		1.48831		-0.7894
2.99848		0.491871		-0.850644
2.49855		-0.00651501		-0.879252
3.49877		0.495106		-0.90671
3.49915		-0.00128568		-0.971435
3.49911		0.997655		-0.953435
3.99949		0.499766		-0.986622
4.50039		0.999773		-0.995618
4.49981		0.500279		-1.00039
5.00186		0.48832		-0.788296
4.50189		-0.00989701		-0.818895
0.501862		0.991823		-0.349134
0.00178962		0.99346		-0.378082
1.0015		0.995022		-0.405277
1.50145		0.996268		-0.429676
2.00147		0.997518		-0.452596
2.50122		1.99864		-0.471505
2.00068		1.99964		-0.4863
3.00048		1.99989		-0.495183
3.50013		0.999841		-0.500071
3.00005		0.988332		-0.289073
4.00037		0.999943		-0.499954
4.50015		0.990085		-0.319496
5.00024		0.991866		-0.349676
2.69973e-05		-0.0065093		-0.378548
0.500142		-0.00377072		-0.429807
0.999969		-0.00480592		-0.40603
1.49908		-0.00373993		-0.430733
2.00005		-0.000220633		-0.494845
2.49965		-4.76218e-05		-0.486694
2.99986		-0.00129807		-0.471175
3.50016		-0.0023985		-0.452451
4.02917		-0.0102589		-0.304522
4.52897		-0.00926599		-0.319806
5.02815		-0.0101984		-0.304816
0.0305313		0.491494		-0.334293
2.02996		1.49234		-0.349224
3.02959		1.4916		-0.334579
5.02862		0.49167		-0.334912
0.528072		0.492587		-0.349853
1.02758		0.491767		-0.335323
2.52924		0.988807		-0.289254
2.53012		1.48976		-0.304231
1.53122		0.488921		-0.28828
2.53208		0.489736		-0.303533
2.03107		0.489778		-0.30385
4.53089		0.490638		-0.319134
4.03147		0.491389		-0.334015
3.52736		0.493416		-0.364376
3.02649		0.493552		-0.364694
0.279254		0.743179		0.136211
0.528404		0.743317		0.135947
0.276684		0.994265		0.121409
0.775822		0.245138		0.107599
1.02482		0.245347		0.107233
0.776598		0.494946		0.107966
0.774594		0.746085		0.0941932
1.02997		0.742938		0.136421
0.778335		0.99394		0.121994
0.0272304		0.744694		0.108281
0.277924		0.494439		0.108432
0.0261971		0.245379		0.0952268
0.274149		-0.00367421		0.0822482
0.273282		0.246674		0.0817559
0.525818		0.245669		0.0826678
0.775073		-0.00403093		0.0825528
1.27378		0.746486		0.0705057
1.27333		0.996612		0.0589182
1.27234		0.247038		0.0588607
1.27222		0.497217		0.0699174
1.5225		0.747026		0.0812469
1.77075		0.747553		0.0481265
1.77149		0.997376		0.0588564
1.77091		0.497755		0.0585223
2.01938		0.748132		0.0478727
1.27071		-0.00187289		0.0581016
1.51746		0.248636		0.0383103
1.76717		0.249001		0.0381952
1.76888		-0.00194633		0.0383256
2.01833		0.248399		0.0383788
2.26582		0.49925		0.0294457
2.26388		0.749922		0.0215103
2.26339		0.000353047		0.0214301
2.26406		0.249421		0.0216127
2.51122		0.25057		0.0145094
2.76913		-0.00254856		0.0381022
2.76667		0.248423		0.0293918
2.51424		0.748847		0.0215783
2.26445		0.998272		0.0212683
3.01185		0.249151		0.0152617
2.75875		0.499995		0.00976798
2.75848		0.750361		0.00918259
3.00987		0.748726		0.00952528
2.75925		0.999345		0.00987216
2.25706		1.24961		0.00541626
2.25469		1.49914		0.00237924
2.00427		1.25003		0.00259157
2.75607		1.75037		0.00529341
2.75883		2.00095		0.00894683
2.50382		1.74941		0.000160324
2.25451		1.74982		0.00260015
2.25335		2.00022		0.00263613
2		1.75		0
2.50444		1.25093		0.00281807
2.96822		1.23868		0.195412
2.71918		1.23865		0.195588
2.71899		1.48787		0.211175
2.96888		1.74014		0.164746
3.2198		0.74027		0.165197
3.21944		0.989411		0.180328
3.22014		0.238611		0.195846
3.22103		0.488626		0.196221
3.47091		0.737737		0.211615
3.72028		0.741141		0.150012
3.72067		0.990347		0.165528
3.72191		0.49135		0.150753
3.97245		0.740495		0.166124
3.2215		-0.00958962		0.165811
3.47123		0.239537		0.180977
3.72199		0.238662		0.196544
3.72116		-0.00809375		0.135509
3.97181		0.242107		0.135895
4.22441		0.493879		0.108101
4.225		0.744111		0.108295
4.22338		-0.00691162		0.121915
4.22257		0.242216		0.136208
4.47333		0.242365		0.136456
4.72032		-0.00829632		0.13511
4.72203		0.242715		0.121309
4.47244		0.743185		0.107104
4.22432		0.994066		0.0944319
4.97308		0.243474		0.107592
4.72367		0.49369		0.107973
4.72562		0.744699		0.0949335
4.97506		0.74422		0.0814062
4.72547		0.994585		0.081986
0.226734		0.995612		-0.941956
0.228043		0.746091		-0.941093
-0.0232472		0.745205		-0.929736
0.726264		0.994943		-0.917549
0.726899		0.745394		-0.917229
0.479382		0.746991		-0.952452
0.228696		0.49644		-0.940778
0.230393		0.247636		-0.951988
-0.0201347		0.247129		-0.940646
0.978975		0.746687		-0.94078
0.727969		0.496072		-0.929142
0.977444		0.245663		-0.917186
0.731382		-0.00235522		-0.962119
0.73192		0.248053		-0.96175
0.486498		0.24957		-0.978825
0.237056		0.00010615		-0.97891
1.23431		0.749032		-0.970814
1.23219		0.498481		-0.961715
1.73296		0.2489		-0.961836
1.73063		-0.00290597		-0.962319
1.48355		0.248188		-0.970888
1.23535		0.247984		-0.978867
1.23854		-0.00121957		-0.98498
1.23588		0.998596		-0.978562
1.4861		0.749111		-0.978442
1.73928		1.00005		-0.985227
1.99081		0.748283		-0.990702
1.74112		0.748932		-0.99022
1.74641		0.498784		-0.997518
1.99693		0.249589		-0.996868
2.24407		0.999052		-0.993886
2.24162		0.749498		-0.989874
2.74204		1.00021		-0.98971
2.75		0.75		-1
2.49619		0.749918		-0.99684
2.25		0.5		-1
2.24693		0.250499		-0.997275
1.99645		1.25002		-0.997225
2.24434		1.2502		-0.993746
1.99197		1.75072		-0.990296
2.26322		1.73946		-0.804785
2.24838		1.4892		-0.804785
2.51324		1.23859		-0.789247
2.73381		1.24054		-0.835367
2.23358		1.98972		-0.820107
2.4835		1.73892		-0.804704
2.73341		1.98811		-0.788907
3.01311		1.74043		-0.820229
2.76274		1.7423		-0.850483
2.76303		1.49137		-0.835391
2.99848		1.24095		-0.835417
2.98411		0.741406		-0.850614
2.76235		0.493114		-0.864955
3.0115		0.244881		-0.893045
2.76193		-0.00602743		-0.879178
2.74851		0.242667		-0.865173
2.48459		0.242187		-0.865048
2.26103		-0.00429383		-0.906752
3.24855		0.744306		-0.893186
3.2365		0.494501		-0.906514
3.73561		0.243726		-0.893114
3.73506		-0.00705527		-0.879313
3.50796		0.248589		-0.962471
3.25923		0.247973		-0.953114
3.25597		-3.84535e-05		-0.979157
3.25686		0.999234		-0.971232
3.49914		0.74816		-0.962969
3.74007		0.997624		-0.962743
3.98877		0.747211		-0.953384
3.7552		0.750585		-0.986636
3.74912		0.499247		-0.979462
3.99386		0.248887		-0.986192
4.24232		0.998487		-0.979331
4.2412		0.748048		-0.971608
4.75451		1.00038		-0.99157
4.74996		0.749753		-0.991723
4.49898		0.749489		-0.998303
4.24715		0.499088		-0.995346
4.24554		0.24899		-0.991415
5.00318		0.750541		-0.995511
4.75		0.5		-1
5.00181		0.250629		-0.998029
4.75018		0.000175603		-0.998252
4.74914		0.250029		-1.00009
4.51678		0.240346		-0.818912
4.26661		-0.00882434		-0.834106
0.266933		0.988664		-0.0379803
0.266871		0.989498		-0.303572
0.00184939		0.98922		-0.0535884
0.73691		0.988001		-0.538297
0.486966		0.988931		-0.553557
0.251869		0.990959		-0.584099
0.016308		0.991983		-0.599113
0.487031		0.989842		-0.0688383
0.987169		0.990728		-0.0840098
0.737418		0.991658		-0.0990469
0.751837		0.992654		-0.363753
1.01596		0.992792		-0.613729
1.23772		0.992603		-0.113686
1.73803		0.993373		-0.128106
1.4885		0.994203		-0.141881
1.26486		0.994327		-0.391842
1.26412		0.994955		-0.654982
2.01544		0.993562		-0.127994
1.75167		0.99428		-0.391963
1.98893		0.995035		-0.65527
1.76288		0.996217		-0.679784
1.51225		0.996751		-0.691274
2.26337		1.99558		-0.167607
2.00142		1.99568		-0.167737
2.73952		1.99577		-0.167547
2.50147		1.99686		-0.191249
2.26148		1.99735		-0.45255
2.24019		1.99638		-0.679482
1.99076		1.99697		-0.69112
2.99154		1.99774		-0.202333
2.75135		1.99811		-0.462385
3.01047		1.99781		-0.712307
2.74234		1.99868		-0.71223
2.49311		1.9991		-0.721573
3.2442		0.999653		-0.229332
3.00795		0.998691		-0.229288
3.75649		0.998941		-0.235807
3.50919		0.998229		-0.221284
3.25098		0.999201		-0.479521
3.24512		1.00021		-0.736254
3.00358		0.999403		-0.745185
4.00218		0.999665		-0.248134
3.75505		0.999248		-0.491015
4.00054		0.99999		-0.741304
3.74623		1.00052		-0.740944
3.50006		0.999997		-0.748218
4.25		1		-0.25
4.24746		1.00012		-0.494973
4.74847		1.00026		-0.747873
4.5		1		-0.75
4.24923		0.988317		-0.539284
4.51416		0.9886		-0.0392338
4.98428		0.988014		-0.0391725
4.7351		0.988037		-0.0390339
4.73598		0.988053		-0.28856
[...]
POINT_DATA	625
SCALARS u_x double 1
LOOKUP_TABLE  table1
0.00354479
0.0111185
0.01922
0.0233712
0.0270904
0.0282841
0
0.0121804
0.0215631
0.0268835
0.0308967
0.0321331
-0.0320805
-0.0281671
-0.0305009
-0.0271841
-0.0259151
-0.0238237
-0.022012
-0.0187652
-0.0118893
-0.0106299
0
0
0.0299355
0.0290427
0.0279157
0.0301969
0.0318352
0.0275898
0.0257658
0.0289807
0.0254101
0.0246714
0.0228191
0.019999
0.0216972
0.0163577
0.0153226
0.0168082
0.0113857
0.00749926
0.00628459
0.00397779
0.00653088
-0.0315026
-0.029633
-0.0299606
-0.0289083
-0.0278277
-0.0272594
-0.0259398
-0.0287472
-0.0250483
-0.0241273
-0.0224715
-0.0199782
-0.0213678
-0.0161429
-0.0151319
-0.0170478
-0.0111139
-0.00643449
-0.00591055
-0.00198469
-0.00559204
-0.00158991
-0.00161788
-0.00152305
-0.0014546
-0.00123383
-0.000851811
-0.000889421
-0.000507955
0.000387905
-0.000188161
0.00185902
0.00188667
0.00186202
0.00178962
0.00149888
0.00145271
0.00147333
0.00121575
0.000675196
0.000476018
0.00012675
5.49676e-05
0.000366805
0.000153909
0.000239429
2.69973e-05
0.000141513
-3.11617e-05
-0.000922473
4.53801e-05
-0.00034687
-0.000135643
0.000164049
0.0291737
0.0289685
0.0281544
0.0305313
0.0299619
0.0295887
0.0286235
0.0280721
0.0275759
0.0292394
0.0301219
0.0312192
0.0320756
0.0310729
0.0308869
0.0314714
0.0273615
0.0264909
0.0292543
0.0284037
0.0266836
0.0258219
0.0248178
0.0265985
0.0245944
0.0299663
0.0283355
0.0272304
0.027924
0.0261971
0.0241494
0.0232825
0.0258176
0.0250725
0.0237789
0.0233255
0.0223434
0.0222235
0.0225022
0.0207517
0.02149
0.0209087
0.0193803
0.0207089
0.0174633
0.0171748
0.0188771
0.0183306
0.0158205
0.0138754
0.0133944
0.0140603
0.0112166
0.01913
0.0166696
0.0142391
0.0144494
0.0118466
0.0087509
0.00848034
0.00987031
0.00925295
0.00706025
0.00468555
0.00426938
0.00607295
0.0088317
0.00381887
0.00451376
0.00335484
0
0.00444066
-0.0317808
-0.0308246
-0.0310086
-0.0311233
-0.0301967
-0.0305564
-0.029855
-0.0289654
-0.0290934
-0.0297223
-0.0293283
-0.0280894
-0.0275501
-0.028502
-0.0287715
-0.0280107
-0.0288415
-0.0281928
-0.0255886
-0.0249971
-0.026618
-0.0274319
-0.02667
-0.0296822
-0.027966
-0.0275585
-0.025676
-0.0269242
-0.0263293
-0.024384
-0.0249378
-0.024529
-0.0232663
-0.0219569
-0.0232472
-0.0237358
-0.0231009
-0.0206177
-0.0213037
-0.0196067
-0.0201347
-0.0210254
-0.0220311
-0.0225564
-0.0186179
-0.01808
-0.013502
-0.0129442
-0.0156869
-0.0178073
-0.0170445
-0.0193661
-0.0164453
-0.0146515
-0.0114606
-0.0141157
-0.0139039
-0.0107246
-0.00919015
-0.00887646
-0.00358723
-0.00306987
-0.0059278
-0.00838343
-0.00795776
0
-0.00380665
0
-0.00307203
-0.00354628
-0.00566379
-0.00803172
0.0132214
-0.00161987
0.0132422
-0.0161942
-0.016415
-0.0164963
-0.0165877
0.0131111
0.0127445
0.0130338
-0.00151983
-0.0158875
0.0123523
0.0114964
0.0119298
-0.00148737
-0.0154134
0.0110276
-0.00144573
-0.013496
-0.0143869
-0.0149443
0.00796238
0.00922562
0.00597273
0.00686333
-0.000860961
-0.00993465
-0.0112331
0.0052032
-0.000875748
-0.00614017
-0.00767919
-0.00879844
0.00451232
-4.38933e-05
-0.00102062
-0.00285156
-0.0044649
0.00317548
0
0.00181239
0.000179284
-0.00085724
0.0167828
0.0166072
0.0169332
0.0168707
0.00184939
-0.0130899
-0.0130336
0.00186907
0.016308
-0.0129685
-0.0128306
-0.0125821
0.00183745
0.0159565
-0.0122811
-0.0119706
-0.0114951
0.0148613
0.0141178
0.0154359
0.00166812
-0.0110681
0.0128836
0.0122546
0.0133716
0.00141509
-0.0104832
0.00147075
0.0114824
-0.00980679
-0.00923642
-0.00846497
0.00135321
0.0104708
-0.00766094
-0.00688638
-0.0058039
0.00794615
0.00648783
0.00918844
0.000976768
-0.00488307
0.00358422
0.00217829
0.00505274
0.000537045
-0.00377185
5.70041e-05
0
-0.0025396
-0.00152995
0
-0.00076928
0.0141636
-0.0157193
-0.0148979
-0.0140153
0.0150812
0.000972898
0.0160201
0
0
0.00200684
-0.000237405
0
0.000210247
-0.000846189
-0.000839927
0.014143
0.0149839
-0.013619
0.00107146
0.015753
0.0150436
0.015913
0.000999706
7.39789e-05
-0.0139164
-0.0138074
-0.0148309
-0.000749384
-0.015557
0.0140613
-0.0133675
0.000198032
0.0139395
0.0136958
0.0154529
0.00102012
0.0145731
-0.000715871
-0.0144686
-0.0153332
-0.0142418
-0.0150936
-0.000685967
0.015119
0.0132763
0.0142254
0.000891924
-0.0123998
-0.0130868
0.000154837
-0.0127785
0.0116918
0.0113985
0.0113545
0.000706519
-0.0098175
0.0121443
-0.0118679
0.000634947
0.0118921
0.0118706
-0.0111062
4.57889e-05
-0.0104712
-0.0125064
-0.0130692
-0.000557742
-0.0117436
0.0108048
-0.00046917
-0.0118139
-0.0118898
-0.00104175
-0.0124114
-0.0128891
0.0146595
0.0133585
0.000877514
0.0129293
0.0125112
3.32479e-05
0.0126564
0.000770016
0.0134458
-0.0141601
-0.000698485
-0.013192
-0.0146291
-0.0135427
-0.000722955
0.000328435
0.00234019
0.00315885
-0.00134564
0.00422058
0.000112136
-0.0014896
-0.00124194
0.000382579
0.00226151
0.00311334
0.00559977
0.00533976
0.00620754
0.000215891
-0.00540843
0.00380004
0.00045523
0.00336046
0.00988597
0.00853468
0.00920085
0.000476825
-0.00659164
0.0107986
-0.00913574
0.000662337
0.0100805
0.00947461
-0.00827361
0.00011937
-0.00746681
0.00994992
-0.000934769
0.0103939
-0.000422552
-0.0103163
-0.00964574
0.0102804
0.000159274
0.010859
-0.0103502
-0.000394985
-0.0110546
-0.00368828
-0.00252303
-0.000322733
-0.00808721
-0.000441291
-0.00923364
-0.00815914
-0.000487761
-0.00726616
-0.00583621
-0.000217083
-0.00569428
0.00873958
0.00713666
0.000436094
0.0076652
0.00670865
-0.000151081
-0.0040224
-2.91743e-05
-0.0029143
0.00102951
-0.0156732
0.0159735
0.0148378
-0.000677101
0.000968519
0.000632712
-0.0123935
0.0138364
0.0141533
0.0127089
-0.0137102
-0.0139142
-0.000675601
0.000321251
0.00458507
0.000616877
-0.000332284
0.000436311
-0.00891228
-0.00720765
0.00828154
0.00191036
-0.0110396
0.00759179
-0.0146761
-0.00426218
0.0108105
-0.000381694
-0.00260743
0
0
0
0
0
0
0
0
0
0
0
0
0
0
0
0
0
0
0
0
0
0
0
0
0
0
0
0
0
0
0
0
0
0
0
0
0
0
0
0
0
0
0
0
0
0
0
0
0
0
0
0
0
0
0
0
0
0
0
0
0
0
0
0
0
0
0
0
0
0
0
0
0
0
0
0
0
0
0
0
0
0
0
0
0
0
0
0
0
0
0
0
0
0
0
0
0
0
0
0

SCALARS u_y double 1
LOOKUP_TABLE  table2
-0.000355014
0.00119334
-0.00165938
-0.00358554
-0.00730092
-0.0111801
0
-0.00146258
-0.00282382
-0.00491636
-0.00781103
-0.0111442
-0.011941
-0.0122384
-0.00902258
-0.00856038
-0.0062234
-0.0049791
-0.00336009
-0.00206088
-0.00187136
0.000791722
0
0
-0.00932419
-0.00753677
-0.00918849
-0.0111448
-0.00941609
-0.00585979
-0.00558258
-0.00632298
-0.00428299
-0.00385475
-0.00315644
-0.00213987
-0.0024162
-0.00108031
-0.000380428
-0.00218192
-0.000138976
-0.00096285
4.46441e-05
-0.000369259
0.000989395
-0.010631
-0.0105214
-0.0122641
-0.0087497
-0.0104272
-0.00709809
-0.00675348
-0.00752689
-0.00565405
-0.00515477
-0.00428018
-0.00267996
-0.00365242
-0.00137042
-0.000466921
-0.0023724
-0.000639499
-0.00166007
-0.000232585
0.000289035
0.000460568
-0.00994754
-0.0116916
-0.00812935
-0.00651501
-0.00489409
-0.00128568
-0.00234465
-0.000234238
-0.000227066
0.000278875
-0.0116799
-0.00989701
-0.00817726
-0.00653967
-0.0049781
-0.00373233
-0.00248194
-0.00135812
-0.000360328
-0.000107091
-0.000159233
-0.0116681
-5.73436e-05
-0.00991532
-0.00813418
-0.0065093
-0.00377072
-0.00480592
-0.00373993
-0.000220633
-4.76218e-05
-0.00129807
-0.0023985
-0.0102589
-0.00926599
-0.0101984
-0.00850616
-0.00765935
-0.00839953
-0.00833007
-0.00741316
-0.00823255
-0.0111933
-0.0102448
-0.0110794
-0.0102644
-0.0102222
-0.00936188
-0.00861121
-0.00658433
-0.00644797
-0.00682149
-0.00668278
-0.00573502
-0.00486189
-0.00465279
-0.00505355
-0.00391494
-0.00706229
-0.00606037
-0.00530615
-0.00556052
-0.00462064
-0.00367421
-0.00332629
-0.00433134
-0.00403093
-0.00351427
-0.0033881
-0.00296154
-0.00278292
-0.00297394
-0.0024465
-0.00262397
-0.00224465
-0.00186792
-0.00187289
-0.00136373
-0.000999022
-0.00194633
-0.00160057
-0.000750187
-7.76897e-05
0.000353047
-0.000579074
0.000570281
-0.00254856
-0.00157656
-0.00115313
-0.00172833
-0.000849491
-4.6112e-06
0.000360628
-0.00127443
-0.000654842
-0.000391801
-0.000856833
3.05686e-05
0.00037387
0.000949707
-0.000593226
-0.000180606
0.000223803
0
0.000932316
-0.0113172
-0.0113519
-0.0121318
-0.00985927
-0.00972998
-0.0105888
-0.0113891
-0.0113743
-0.0122633
-0.00885888
-0.00965287
-0.00865013
-0.0095046
-0.00958962
-0.0104627
-0.0113384
-0.00809375
-0.00789339
-0.00612065
-0.00588943
-0.00691162
-0.00778437
-0.00763531
-0.00829632
-0.00728536
-0.00681518
-0.005934
-0.00652627
-0.00630987
-0.00530118
-0.00577959
-0.00541512
-0.00438807
-0.00390938
-0.00479549
-0.0050574
-0.00460571
-0.00300858
-0.00355983
-0.00236369
-0.00287078
-0.00331282
-0.00392846
-0.00433745
-0.00235522
-0.00194659
-0.000429933
0.00010615
-0.000967706
-0.00151887
-0.00110018
-0.00290597
-0.00181153
-0.00201608
-0.00121957
-0.00140408
-0.000888791
5.29069e-05
-0.00171661
-0.00106804
-0.00121598
-0.000410948
-0.000947899
-0.000501694
0.000206302
0
-8.17618e-05
0
0.000499276
1.71446e-05
0.000204465
0.000716954
-0.010538
-0.010797
-0.0114142
-0.00945832
-0.0102825
-0.0110793
-0.0118884
-0.00956976
-0.00769615
-0.00862925
-0.00905199
-0.00859417
-0.0068857
-0.00511936
-0.00602743
-0.00733344
-0.00781309
-0.00429383
-0.00569357
-0.00549881
-0.00627431
-0.00705527
-0.00141096
-0.00202664
-3.84535e-05
-0.000766228
-0.00183952
-0.00237601
-0.00278939
0.000585075
-0.000752875
-0.0011127
-0.00151259
-0.00195206
0.000382737
-0.000247383
-0.000510785
-0.000911946
-0.00100952
0.000541236
0
0.000629086
0.000175603
2.88999e-05
-0.0096539
-0.00882434
-0.0113356
-0.0105023
-0.0107798
-0.0119988
-0.0110685
-0.00904108
-0.00801709
-0.0101577
-0.00927233
-0.00834206
-0.0073462
-0.00720755
-0.00739747
-0.00662728
-0.00579688
-0.00567263
-0.00504461
-0.00643825
-0.00572003
-0.00496548
-0.0037829
-0.00324889
-0.00441699
-0.00431924
-0.00422732
-0.00314168
-0.00264886
-0.00361743
-0.00303449
-0.00225685
-0.00188618
-0.00218819
-0.00131637
-0.000902981
-0.000347456
-0.00130853
-0.0010592
-0.00177128
-0.000798914
0.000214845
-0.000596654
-0.000334929
-0.000751557
-9.53641e-06
0.000515405
-2.79564e-06
0
0.000123875
0.000264573
0
-0.0116829
-0.0114004
-0.011986
-0.0119629
-0.0119473
-0.0114303
-0.0117057
-0.0114126
0
0
-0.000201216
3.75621e-06
0
-3.90032e-05
0.000144276
0.000238603
-0.0105226
-0.00962093
-0.00929812
-0.00902503
-0.00876152
-0.0105217
-0.00962046
-0.010787
-0.0107888
-0.0110599
-0.010185
-0.011081
-0.0108037
-0.0102494
-0.00959348
-0.00836304
-0.00902046
-0.0086833
-0.00776944
-0.00792154
-0.00815094
-0.00784744
-0.00993295
-0.00933712
-0.00937097
-0.00842795
-0.00849217
-0.00813643
-0.00708312
-0.00693093
-0.00700676
-0.00652943
-0.00590871
-0.00750027
-0.00729621
-0.00670997
-0.00299101
-0.00386397
-0.00348353
-0.00315862
-0.00319441
-0.00359963
-0.00502788
-0.00434754
-0.00403451
-0.00433628
-0.00443343
-0.00429609
-0.00386897
-0.00520255
-0.0053415
-0.00483659
-0.00463863
-0.00369977
-0.00432025
-0.00421407
-0.00370205
-0.00433749
-0.00442964
-0.00503322
-0.00628845
-0.00537711
-0.00569786
-0.00610618
-0.00524072
-0.00568318
-0.00459348
-0.0048904
-0.00482523
-0.00688738
-0.00566253
-0.00600193
-0.00767436
-0.00680425
-0.0073133
4.44204e-05
0.000103886
0.000142091
-0.00015669
6.85791e-05
-0.00023461
-0.000144251
-8.32914e-05
-2.56367e-06
1.75456e-06
-3.68406e-05
-0.000154036
0.000419878
-0.000615513
-0.000183734
8.70601e-05
-0.000128846
-3.93965e-05
-0.000189181
-0.00187679
-0.00158592
-0.00172442
-0.0013405
-0.000591829
-0.00244126
-0.00236145
-0.00243494
-0.00225333
-0.00210517
-0.00162281
-0.00180797
-0.00113609
-0.00246405
-0.00307627
-0.00302998
-0.00239322
-0.00262973
-0.00251336
-0.00261829
-0.00307714
-0.00324121
-0.00332132
-0.00374913
-0.00347288
7.90743e-05
-9.59078e-05
-0.000171898
-0.00135647
-0.00179268
-0.00203079
-0.00156047
-0.000665162
-0.000865268
-0.000664534
-0.000102559
-0.000343431
-0.00142203
-0.000626791
-0.000759281
-0.000976705
-0.000298011
-0.000725005
-0.000300667
-0.000191058
-0.000446408
-0.00989495
-0.0111005
-0.0105115
-0.00871594
-0.00902511
-0.00731091
-0.00375717
-0.00484287
-0.00618764
-0.00552572
-0.00422058
-0.00612275
-0.00757885
-0.00649382
4.07343e-05
-0.000371759
-0.00181222
-0.00299728
-9.11901e-05
-0.00176952
-0.00115836
-0.00117354
0.000197829
-0.0040048
-0.000985672
-0.0102135
-0.000602019
-0.00283085
-0.00125199
-0.000288136
0
0
0
0
0
0
0
0
0
0
0
0
0
0
0
0
0
0
0
0
0
0
0
0
0
0
0
0
0
0
0
0
0
0
0
0
0
0
0
0
0
0
0
0
0
0
0
0
0
0
0
0
0
0
0
0
0
0
0
0
0
0
0
0
0
0
0
0
0
0
0
0
0
0
0
0
0
0
0
0
0
0
0
0
0
0
0
0
0
0
0
0
0
0
0
0
0
0
0
0

SCALARS u_z double 1
LOOKUP_TABLE  table3
0.000273571
0.0137401
0.0475182
0.0933766
0.149771
0.21082
0
0.01499
0.0477926
0.0953828
0.150986
0.211934
0.211731
0.212029
0.149566
0.151113
0.0938571
0.0949361
0.0468706
0.0481737
0.0147132
0.0141367
0
0
0.180522
0.150503
0.179805
0.211024
0.181143
0.121717
0.121121
0.122182
0.094803
0.0704508
0.0702084
0.0481293
0.069454
0.0294637
0.0294625
0.0291267
0.0150909
0.00532382
0.00528933
0.000191812
0.00517664
0.179967
0.180686
0.211034
0.150416
0.181262
0.12163
0.122115
0.120884
0.0948256
0.0695511
0.070784
0.0479344
0.0708932
0.0290744
0.0289231
0.0288807
0.0151289
0.00537285
0.00651189
0.000396115
0.00576831
0.179831
0.2106
0.149356
0.120748
0.0932897
0.0285647
0.0465647
0.0133776
0.00438218
-0.000390308
0.211704
0.181105
0.150866
0.121918
0.0947227
0.0703242
0.0474038
0.0284952
0.0136997
0.00481726
-7.10171e-05
0.210927
4.55682e-05
0.180504
0.150324
0.121452
0.0701929
0.0939702
0.0692668
0.00515509
0.0133063
0.0288246
0.0475493
0.195478
0.180194
0.195184
0.165707
0.150776
0.165421
0.165088
0.150147
0.164677
0.210746
0.195769
0.21172
0.196467
0.19615
0.180866
0.165985
0.135624
0.135306
0.136211
0.135947
0.121409
0.107599
0.107233
0.107966
0.0941932
0.136421
0.121994
0.108281
0.108432
0.0952268
0.0822482
0.0817559
0.0826678
0.0825528
0.0705057
0.0589182
0.0588607
0.0699174
0.0812469
0.0481265
0.0588564
0.0585223
0.0478727
0.0581016
0.0383103
0.0381952
0.0383256
0.0383788
0.0294457
0.0215103
0.0214301
0.0216127
0.0145094
0.0381022
0.0293918
0.0215783
0.0212683
0.0152617
0.00976798
0.00918259
0.00952528
0.00987216
0.00541626
0.00237924
0.00259157
0.00529341
0.00894683
0.000160324
0.00260015
0.00263613
0
0.00281807
0.195412
0.195588
0.211175
0.164746
0.165197
0.180328
0.195846
0.196221
0.211615
0.150012
0.165528
0.150753
0.166124
0.165811
0.180977
0.196544
0.135509
0.135895
0.108101
0.108295
0.121915
0.136208
0.136456
0.13511
0.121309
0.107104
0.0944319
0.107592
0.107973
0.0949335
0.0814062
0.081986
0.0580438
0.0589071
0.0702645
0.0824513
0.0827708
0.0475477
0.0592217
0.0480123
0.0593535
0.0592203
0.0708578
0.0828138
0.0378808
0.0382502
0.0211753
0.0210899
0.0291864
0.0382846
0.0381635
0.0376812
0.0291119
0.0211333
0.0150203
0.0214385
0.0215575
0.0147726
0.00929774
0.00978039
0.00248193
0.00313167
0.00611427
0.0101265
0.0102897
0
0.00315969
0
0.00272547
0.00277474
0.00625397
0.00970448
0.195215
0.195215
0.210753
0.164633
0.179893
0.195296
0.211093
0.179771
0.149517
0.164609
0.164583
0.149386
0.135045
0.106955
0.120822
0.134827
0.134952
0.0932481
0.106814
0.0934856
0.106886
0.120687
0.0375286
0.0468863
0.0208434
0.0287677
0.0370306
0.0372571
0.0466159
0.0133641
0.0205376
0.0138078
0.020669
0.0283922
0.00843011
0.00827723
0.00169652
0.00465383
0.00858471
0.00448929
0
0.0019708
0.0017482
-8.87965e-05
0.181088
0.165894
0.21202
0.196428
0.196412
0.211703
0.196443
0.165901
0.150887
0.181162
0.16599
0.150953
0.136247
0.136271
0.136314
0.121894
0.108119
0.108158
0.0950185
0.122006
0.108037
0.0947302
0.0702159
0.0587259
0.0823927
0.0822634
0.0824529
0.0587507
0.0474502
0.0705182
0.0588802
0.0476667
0.0376154
0.0376928
0.0377697
0.0284272
0.0206676
0.0207122
0.0141929
0.0287163
0.0204787
0.0137462
0.00481549
0.00186647
0.00898501
0.00869576
0.00905588
0.00178182
0
0.00502734
0.00212706
0
0.210716
0.210766
0.210827
0.210966
0.21144
0.210972
0.211324
0.211506
0
0
8.05041e-05
-0.000233048
0
-7.37882e-05
0.000187325
0.000302989
0.19544
0.180468
0.165741
0.165637
0.165636
0.195721
0.180803
0.196068
0.195712
0.196119
0.180885
0.195765
0.195436
0.180233
0.180147
0.150674
0.165336
0.164987
0.15001
0.150666
0.150574
0.150367
0.180171
0.165397
0.165043
0.150336
0.149891
0.149893
0.136043
0.135464
0.135775
0.121692
0.107898
0.136049
0.1357
0.121731
0.0586416
0.0816652
0.0700873
0.0587377
0.0590214
0.0702767
0.0944113
0.0821016
0.0819621
0.0936737
0.0823473
0.0818891
0.0704968
0.0943472
0.0940086
0.0937925
0.0821164
0.081095
0.0815382
0.0699355
0.0578163
0.0810701
0.06935
0.0811769
0.121791
0.107681
0.107844
0.12123
0.107345
0.10757
0.094366
0.0944683
0.0948542
0.121124
0.107324
0.107609
0.135345
0.121449
0.135295
0.00198882
0.0021248
0.00471927
0.00203837
0.00887577
0.00472162
0.00245825
0.00240407
0.00210588
0.00207984
0.00499814
0.0140986
0.0133926
0.0143796
0.0137414
0.0136683
0.00900838
0.00888647
0.00508209
0.0378583
0.0378664
0.0379407
0.0286651
0.0208314
0.0477869
0.0477224
0.0474989
0.0477167
0.0474117
0.0378948
0.0377814
0.0287296
0.0578199
0.0577351
0.0693093
0.0471074
0.047224
0.0476324
0.0582641
0.0585971
0.0697519
0.0588262
0.0697459
0.0583845
0.00930754
0.00543286
0.00888795
0.0287224
0.0375285
0.0375801
0.0287009
0.0208947
0.0207759
0.0140715
0.0136054
0.0140975
0.0289121
0.0209983
0.0206806
0.0290185
0.0209596
0.0207411
0.00936452
0.00863414
0.00531535
0.180812
0.195501
0.196076
0.165332
0.164984
0.136028
0.0703156
0.0817559
0.12152
0.107973
0.0822359
0.107378
0.135699
0.12112
0.00214777
0.00913375
0.0378232
0.0582225
0.00507495
0.0378272
0.0209753
0.0289881
0.00213648
0.0703508
0.0209515
0.180566
0.00917287
0.058548
0.0287345
0.0056361
0
0
0
0
0
0
0
0
0
0
0
0
0
0
0
0
0
0
0
0
0
0
0
0
0
0
0
0
0
0
0
0
0
0
0
0
0
0
0
0
0
0
0
0
0
0
0
0
0
0
0
0
0
0
0
0
0
0
0
0
0
0
0
0
0
0
0
0
0
0
0
0
0
0
0
0
0
0
0
0
0
0
0
0
0
0
0
0
0
0
0
0
0
0
0
0
0
0
0
0

SCALARS u_magnitude double 1
LOOKUP_TABLE  table4
0.00357301
0.0177154
0.0512849
0.0963238
0.152376
0.213002
0
0.0193701
0.0525078
0.0992208
0.154312
0.214646
0.21448
0.214242
0.152911
0.153777
0.0975678
0.0980063
0.051891
0.0517405
0.0190088
0.0177051
0
0
0.183225
0.153465
0.182191
0.213465
0.18416
0.124942
0.123957
0.125731
0.0982427
0.0747453
0.0738911
0.0521629
0.0728042
0.0337172
0.0332109
0.0336993
0.0189048
0.00924711
0.00821432
0.0039995
0.00839219
0.183012
0.183401
0.213503
0.153419
0.183682
0.124849
0.125022
0.124483
0.0982409
0.0737974
0.0743886
0.0520001
0.0741334
0.0332836
0.0326456
0.0336207
0.0187832
0.00854553
0.00879736
0.00204437
0.00804714
0.180113
0.210931
0.149585
0.120932
0.0934261
0.0286063
0.0466322
0.0133892
0.00440518
0.000515283
0.212034
0.181385
0.151099
0.122106
0.0948652
0.0704381
0.0474916
0.0285534
0.0137211
0.00484191
0.000215556
0.211249
0.000374046
0.180776
0.150544
0.121626
0.0702943
0.094093
0.0693738
0.00516
0.0133109
0.0288542
0.0476101
0.197909
0.182743
0.197468
0.168711
0.153915
0.168256
0.167758
0.152929
0.167173
0.213059
0.198337
0.214296
0.199333
0.198858
0.183723
0.169162
0.138513
0.138025
0.139484
0.139043
0.124438
0.110761
0.110165
0.111309
0.0974298
0.139852
0.125388
0.111778
0.112107
0.0988725
0.0857989
0.0850715
0.0867137
0.0863704
0.0744906
0.063458
0.0630285
0.0734171
0.0843579
0.052467
0.0627119
0.0621858
0.0516806
0.0617103
0.0421248
0.0418909
0.0427666
0.0425618
0.0334351
0.0255973
0.0252741
0.0257902
0.0183483
0.042711
0.0338266
0.0258787
0.0257704
0.0193387
0.0131146
0.0125046
0.013776
0.0135464
0.0089071
0.00532441
0.00499447
0.00806478
0.0126074
0.00386799
0.00521224
0.0042725
0
0.00534137
0.198302
0.198327
0.213784
0.167949
0.168215
0.183205
0.198436
0.198673
0.213958
0.153185
0.168383
0.153592
0.168661
0.168516
0.183548
0.198854
0.13878
0.139013
0.111257
0.111298
0.124978
0.13916
0.139247
0.138581
0.124704
0.110803
0.0980401
0.111102
0.111315
0.0981583
0.0853362
0.0857479
0.062687
0.0629876
0.0741655
0.0859487
0.0860573
0.0519127
0.0630376
0.0519152
0.0627415
0.0629292
0.0743076
0.0859402
0.0422744
0.0423527
0.0251173
0.0247456
0.0331491
0.0422507
0.0418112
0.042466
0.0334848
0.0257943
0.0189326
0.0257067
0.0256678
0.0182551
0.0131854
0.013251
0.00452844
0.00440458
0.00856864
0.0131559
0.0130095
0
0.00494782
0
0.00413701
0.00450284
0.00843993
0.0126174
0.195946
0.19552
0.211477
0.165698
0.180933
0.196304
0.212077