# vtk DataFile Version 3.0
The density field of the optimized results
ASCII
DATASET UNSTRUCTURED_GRID

POINTS	625	double
0.0286679		0.988668		0.213674
1.02746		0.9926		0.151801
2.02369		0.996366		0.0946426
2.01967		1.99641		0.0909717
3.01961		1.99902		0.0442777
3.01948		0.998318		0.0481624
4.01127		1.00121		0.0139263
5.00359		0.99964		0.00027728
5		0		0
4.01235		-0.00148241		0.0151932
3.02186		-0.0028621		0.0484406
2.02725		-0.00498302		0.096676
1.03132		-0.00791693		0.153033
0.0325688		-0.0112953		0.214807
-0.0325155		0.987897		-0.785399
0.969086		0.990855		-0.848406
1.97373		0.993692		-0.90487
1.97298		1.99339		-0.908993
2.97308		1.99608		-0.955639
2.97769		0.996594		-0.952494
3.98795		0.998103		-0.985087
5		1		-1
5		0		-1
3.98923		0.000802456		-0.985672
2.98098		-0.00208882		-0.951173
1.97585		-0.00504661		-0.903777
0.972447		-0.00867644		-0.846839
-0.028549		-0.0124043		-0.785096
0.530341		0.490549		0.18297
1.02944		0.492361		0.152544
0.528294		0.990687		0.182243
0.0306063		0.488704		0.213885
0.532267		-0.00954376		0.183599
1.52796		0.494061		0.123367
1.52612		0.994342		0.122763
1.52937		-0.00640871		0.123838
2.02575		0.495659		0.0960883
2.52501		-0.00390701		0.071406
2.52313		0.496801		0.0711603
3.02027		0.497831		0.0487818
2.52199		0.997551		0.0703956
2.52097		1.49777		0.0690646
2.51965		1.99777		0.0675845
2.0211		1.49639		0.0925631
3.02074		1.49886		0.0458935
3.51658		0.498905		0.0298631
3.51553		0.999614		0.029862
3.51704		-0.0022115		0.0295216
4.01154		0.499859		0.0152955
4.5076		-0.000975904		0.005396
4.50637		0.500045		0.00536104
5.00403		0.499626		0.000194412
4.50662		1.001		0.00524682
0.46807		0.989225		-0.817593
0.469965		0.489336		-0.816865
-0.0303668		0.48757		-0.786104
0.9707		0.491132		-0.847544
0.471795		-0.0105685		-0.81628
1.47237		0.492806		-0.876721
1.47371		-0.00684505		-0.87623
1.47086		0.992371		-0.877477
1.97461		0.494269		-0.903889
2.47555		0.994775		-0.929506
2.47722		0.495662		-0.928256
1.97417		1.49341		-0.907431
2.47431		1.49466		-0.93096
2.47299		1.99469		-0.932365
2.97457		1.49617		-0.954098
2.97975		0.497284		-0.951416
2.47834		-0.00370194		-0.928146
3.48364		0.498611		-0.970531
3.48466		-0.000473251		-0.970685
3.48272		0.997595		-0.970728
3.98874		0.499352		-0.984666
4.49348		0.998317		-0.994554
4.49401		0.499764		-0.9934
4.99799		0.500293		-0.999599
4.49433		0.000466813		-0.994153
0.498389		0.989918		-0.317731
-0.00163982		0.98815		-0.286544
0.998456		0.99176		-0.348619
1.49853		0.993397		-0.377615
1.99875		0.99504		-0.405445
2.49632		1.99623		-0.432405
1.99631		1.99489		-0.409017
2.99634		1.99754		-0.455712
3.49914		0.998697		-0.471048
2.9991		0.997624		-0.452804
3.99949		0.999763		-0.486441
4.50039		0.99977		-0.495558
4.99981		1.00028		-0.500396
0.00188422		-0.0118382		-0.285426
0.501912		-0.0100312		-0.31644
1.00189		-0.00828813		-0.347089
1.50181		-0.00662833		-0.376429
2.00152		-0.00504559		-0.403993
2.50147		-0.00378293		-0.428722
3.00149		-0.00251559		-0.451953
3.50123		-0.00137653		-0.471119
4.00068		-0.000365213		-0.486115
4.50048		-0.000108543		-0.495117
5.00013		-0.000161392		-0.500072
5.57129e-05		0.488174		-0.286213
1.99767		1.49489		-0.407451
2.99763		1.49755		-0.45412
5.00037		0.499942		-0.499954
0.500156		0.48995		-0.317049
1.00024		0.491756		-0.347638
2.49907		0.996209		-0.429794
2.49763		1.49622		-0.431003
1.50003		0.493402		-0.376901
2.50014		0.496178		-0.428855
1.99997		0.495129		-0.404756
4.50005		0.499776		-0.494775
3.99965		0.499952		-0.486513
3.49986		0.498684		-0.470785
3.00017		0.497569		-0.451806
0.279569		0.739602		0.198129
0.529361		0.740608		0.182637
0.278536		0.989663		0.197831
0.780945		0.241379		0.167954
1.03037		0.242237		0.15282
0.77999		0.491487		0.167663
0.779012		0.741557		0.167326
1.02845		0.742486		0.152183
0.77795		0.991656		0.16691
0.0296358		0.738655		0.213603
0.28053		0.489616		0.198423
0.0316425		0.23877		0.214591
0.28251		-0.0104036		0.199131
0.281494		0.239639		0.198809
0.531306		0.240511		0.183318
0.781898		-0.00872796		0.168236
1.27773		0.743326		0.137463
1.27685		0.993465		0.13714
1.27965		0.243086		0.138058
1.27879		0.493227		0.13779
1.52705		0.744187		0.123055
1.77617		0.745072		0.109058
1.77515		0.995284		0.108686
1.77696		0.494878		0.10943
2.02493		0.746032		0.0954702
1.28037		-0.00715804		0.138271
1.52872		0.243857		0.123648
1.7776		0.244622		0.109749
1.7783		-0.0056359		0.109902
2.02655		0.245317		0.0965179
2.27448		0.496276		0.0833633
2.2736		0.746629		0.0828643
2.27617		-0.00439006		0.0837885
2.27541		0.245914		0.0836721
2.5241		0.246438		0.0714616
2.77364		-0.00343403		0.059717
2.77265		0.246998		0.0596588
2.52252		0.747179		0.0708654
2.27281		0.996986		0.0823485
3.02103		0.24752		0.048779
2.77178		0.49734		0.0596544
2.77119		0.747725		0.0593158
3.01964		0.748107		0.0485218
2.77099		0.998102		0.0588893
2.27192		1.24713		0.0816046
2.27106		1.49712		0.0808087
2.02203		1.24634		0.0934839
2.77026		1.74839		0.0566674
2.76963		1.99839		0.0559236
2.52031		1.74776		0.0683407
2.27035		1.74711		0.0800422
2.26966		1.99711		0.079275
2.02036		1.74641		0.0917483
2.52158		1.24773		0.0697641
3.02094		1.24866		0.0468297
2.77119		1.24829		0.0581678
2.77082		1.49837		0.0574502
3.02024		1.74898		0.0450732
3.2677		0.748618		0.0388297
3.26741		0.998987		0.038713
3.26913		0.248027		0.0388452
3.26858		0.498378		0.0388991
3.51604		0.74924		0.0298449
3.76406		0.749921		0.0218019
3.76358		1.00036		0.0217206
3.76425		0.499413		0.0219057
4.01137		0.750578		0.0147061
3.26939		-0.00258311		0.0386188
3.5169		0.248402		0.0297903
3.76443		0.248831		0.0218709
3.76465		-0.00175176		0.0215566
4.01201		0.249139		0.0154686
4.25887		0.499995		0.00990041
4.2586		0.750366		0.00930708
4.26		-0.00129171		0.00965442
4.25938		0.249336		0.010006
4.50716		0.249603		0.00548969
4.75475		-0.00086845		0.0024115
4.75433		0.250031		0.00262671
4.50616		0.750379		0.00536518
4.25895		1.00096		0.00906813
5.00387		0.249399		0.000162498
4.75457		0.499817		0.00263541
4.7534		0.750227		0.00267187
5		0.75		0
4.7545		1.00094		0.00285628
0.217788		0.988529		-0.801939
0.218757		0.738494		-0.80176
-0.031429		0.737704		-0.785962
0.718455		0.990007		-0.833021
0.719394		0.740138		-0.832564
0.469029		0.739268		-0.817227
0.21974		0.488457		-0.801498
0.220642		0.238471		-0.801119
-0.0294879		0.23757		-0.785516
0.969875		0.741021		-0.847954
0.720274		0.490216		-0.832228
0.97153		0.241233		-0.847203
0.722076		-0.00963346		-0.831624
0.721112		0.24028		-0.831941
0.470838		0.239395		-0.816569
0.22161		-0.0114921		-0.800791
1.22077		0.741797		-0.862654
1.22142		0.492		-0.862263
1.72406		0.243796		-0.890433
1.72466		-0.00596928		-0.890237
1.47302		0.242995		-0.876432
1.2222		0.24211		-0.861946
1.22297		-0.00773883		-0.861694
1.21992		0.991591		-0.863058
1.47165		0.742616		-0.877046
1.72207		0.993092		-0.891444
1.97398		0.743986		-0.904288
1.72271		0.743385		-0.890949
1.72331		0.493605		-0.890564
1.97529		0.244627		-0.903779
2.22472		0.994142		-0.91749
2.22514		0.744511		-0.916902
2.72642		0.995552		-0.941169
2.72775		0.746038		-0.940294
2.47644		0.745139		-0.928783
2.22594		0.494874		-0.916431
2.22659		0.245332		-0.916107
1.9745		1.2435		-0.906427
2.22469		1.24401		-0.918358
1.97361		1.74339		-0.908243
2.22361		1.74403		-0.919946
2.22422		1.49401		-0.919193
2.47496		1.24465		-0.930225
2.72536		1.2454		-0.941942
2.22298		1.99403		-0.920683
2.47365		1.74469		-0.931668
2.72303		1.99537		-0.944019
2.97378		1.7461		-0.954872
2.72372		1.74537		-0.943289
2.72443		1.49537		-0.942602
2.97573		1.24632		-0.953267
2.9791		0.746951		-0.951808
2.72841		0.496392		-0.939975
2.98013		0.247604		-0.951337
2.72959		-0.0029097		-0.939842
2.72869		0.246642		-0.939977
2.47767		0.246018		-0.928182
2.22714		-0.00439625		-0.916063
3.23113		0.747613		-0.961606
3.23167		0.498027		-0.961231
3.73631		0.249564		-0.978538
3.73688		0.000107589		-0.978624
3.4841		0.249019		-0.970418
3.23195		0.248461		-0.961196
3.23272		-0.0011151		-0.961319
3.23037		0.997055		-0.961808
3.48333		0.748164		-0.970493
3.73515		0.997957		-0.97858
3.98838		0.748764		-0.984776
3.73569		0.748577		-0.978271
3.73591		0.499099		-0.97815
3.98913		0.250054		-0.985027
4.24069		0.99826		-0.990576
4.241		0.748917		-0.990087
4.74636		0.998768		-0.997484
4.74689		0.749583		-0.996826
4.49399		0.749039		-0.993803
4.2415		0.499492		-0.989736
4.24193		0.250209		-0.989571
5		0.75		-1
4.74614		0.499917		-0.996797
5		0.25		-1
4.74689		0.000506045		-0.997238
4.74641		0.250017		-0.997188
4.49426		0.250207		-0.993661
4.24186		0.000726675		-0.990164
0.263401		0.989319		-0.0521382
0.248358		0.989057		-0.302139
0.0134217		0.988431		-0.0363897
0.733586		0.990413		-0.583135
0.483362		0.989578		-0.567668
0.23328		0.988771		-0.552056
-0.0168126		0.98795		-0.536046
0.513289		0.9903		-0.0677916
1.01292		0.9922		-0.0984558
0.763211		0.991254		-0.0831593
0.74846		0.990825		-0.333185
0.983897		0.991289		-0.598589
1.26252		0.993021		-0.113124
1.76165		0.994811		-0.141595
1.51209		0.993891		-0.12754
1.24849		0.992567		-0.363345
1.23438		0.992081		-0.613219
2.01118		0.995648		-0.155488
1.74853		0.994229		-0.391737
1.98632		0.994427		-0.655247
1.73542		0.993641		-0.641665
1.48485		0.992849		-0.627677
2.25798		1.99634		-0.170727
2.00798		1.99564		-0.159026
2.75798		1.99764		-0.194072
2.50798		1.997		-0.182416
2.24631		1.99557		-0.420721
2.23465		1.9948		-0.670703
1.98464		1.99414		-0.659006
3.00797		1.99827		-0.205719
2.74632		1.99689		-0.444073
2.9847		1.99681		-0.705688
2.73467		1.99612		-0.69407
2.48466		1.99545		-0.682397
3.25807		0.99857		-0.211963
3.00935		0.997946		-0.202478
3.75605		0.999961		-0.228874
3.50696		0.999223		-0.220842
3.24913		0.998136		-0.462467
3.23993		0.997592		-0.712238
2.98861		0.997173		-0.702752
4.00527		1.00059		-0.236455
3.74911		0.999237		-0.479184
3.99378		0.998872		-0.736005
3.74222		0.998467		-0.729051
3.49108		0.998021		-0.721223
4.25457		1.00039		-0.241456
4.24996		0.999749		-0.491611
4.74897		0.999482		-0.74828
4.49711		0.999076		-0.745283
4.24547		0.998977		-0.741299
4.50322		1.00055		-0.24545
5		1		-0.25
4.75184		1.00064		-0.248002
[...]
POINT_DATA	625
SCALARS u_x double 1
LOOKUP_TABLE  table1
0.0286679
0.0274576
0.023688
0.0196686
0.0196144
0.0194806
0.0112693
0.00359284
0
0.0123456
0.0218554
0.027248
0.0313156
0.0325688
-0.0325155
-0.0309145
-0.0262665
-0.0270216
-0.026917
-0.0223104
-0.0120505
0
0
-0.010774
-0.0190196
-0.0241467
-0.0275526
-0.028549
0.0303414
0.0294364
0.0282942
0.0306063
0.0322668
0.0279639
0.0261151
0.0293736
0.0257547
0.0250059
0.0231284
0.0202702
0.0219914
0.0209664
0.0196528
0.0211023
0.0207351
0.0165795
0.0155303
0.0170361
0.0115401
0.00760093
0.00636979
0.00403172
0.00661942
-0.0319297
-0.0300348
-0.0303668
-0.0293002
-0.0282049
-0.027629
-0.0262915
-0.0291369
-0.0253879
-0.0244544
-0.0227762
-0.0258332
-0.0256948
-0.0270051
-0.0254255
-0.0202491
-0.0216575
-0.0163618
-0.015337
-0.0172789
-0.0112646
-0.00652172
-0.00599069
-0.0020116
-0.00566785
-0.00161147
-0.00163982
-0.0015437
-0.00147432
-0.00125056
-0.00367886
-0.00369211
-0.00366413
-0.00086336
-0.000901479
-0.000514841
0.000393164
-0.000190712
0.00188422
0.00191225
0.00188726
0.00181388
0.00151921
0.0014724
0.0014933
0.00123223
0.00068435
0.000482472
0.000128469
5.57129e-05
-0.0023252
-0.00236658
0.000371778
0.000155996
0.000242675
-0.000934979
-0.00237036
2.73633e-05
0.000143431
-3.15842e-05
4.59953e-05
-0.000351573
-0.000137482
0.000166274
0.0295693
0.0293612
0.0285361
0.0309452
0.0303682
0.0299899
0.0290115
0.0284527
0.0279498
0.0296358
0.0305303
0.0316425
0.0325104
0.0314942
0.0313057
0.031898
0.0277325
0.02685
0.029651
0.0287888
0.0270454
0.0261719
0.0251543
0.0269591
0.0249279
0.0303726
0.0287197
0.0275996
0.0283026
0.0265522
0.0244769
0.0235981
0.0261677
0.0254124
0.0241013
0.0236418
0.0226464
0.0225248
0.0228073
0.021033
0.0217813
0.0211922
0.019643
0.0209896
0.0219233
0.0210646
0.0220339
0.0202596
0.0196303
0.0203108
0.0203458
0.0196647
0.020359
0.0215813
0.0209441
0.0211924
0.0208246
0.0202381
0.0177001
0.0174077
0.019133
0.0185791
0.016035
0.0140635
0.013576
0.0142509
0.0113687
0.0193893
0.0168956
0.0144321
0.0146453
0.0120072
0.00886954
0.00859531
0.0100041
0.0093784
0.00715597
0.00474908
0.00432726
0.00615529
0.00895144
0.00387064
0.00457495
0.00340033
0
0.00450087
-0.0322117
-0.0312425
-0.031429
-0.0315453
-0.0306061
-0.0309707
-0.0302598
-0.0293581
-0.0294879
-0.0301252
-0.0297259
-0.0284702
-0.0279236
-0.0288884
-0.0291615
-0.0283904
-0.0292325
-0.0285751
-0.0259355
-0.025336
-0.0269789
-0.0278038
-0.0270316
-0.0300846
-0.0283452
-0.0279321
-0.0260241
-0.0272893
-0.0266863
-0.0247146
-0.0252759
-0.0248616
-0.0235818
-0.0222545
-0.0235624
-0.0240577
-0.0234141
-0.0255026
-0.0253098
-0.0263909
-0.0263871
-0.0257775
-0.0250399
-0.0246385
-0.0270208
-0.0263506
-0.0269666
-0.0262157
-0.0262848
-0.0255711
-0.024272
-0.0208972
-0.0215926
-0.0198725
-0.0204077
-0.0213104
-0.0223298
-0.0228622
-0.0188703
-0.0183251
-0.013685
-0.0131197
-0.0158996
-0.0180487
-0.0172755
-0.0196287
-0.0166683
-0.0148502
-0.011616
-0.0143071
-0.0140924
-0.01087
-0.00931474
-0.00899681
-0.00363586
-0.00311149
-0.00600817
-0.00849709
-0.00806565
0
-0.00385826
0
-0.00311368
-0.00359436
-0.00574057
-0.00814061
0.0134006
-0.00164184
0.0134217
-0.0164138
-0.0166376
-0.01672
-0.0168126
0.0132888
0.0129173
0.0132105
-0.00154044
-0.0161029
0.0125198
0.0116523
0.0120915
-0.00150754
-0.0156224
0.0111771
-0.00146533
-0.013679
-0.014582
-0.015147
0.00798219
0.00798308
0.00798139
0.00798447
-0.00368876
-0.0153467
-0.0153564
0.00797402
-0.00367546
-0.0152973
-0.0153331
-0.0153425
0.00807033
0.0093507
0.00605371
0.00695638
-0.000872634
-0.0100693
-0.0113854
0.00527374
-0.000887621
-0.00622342
-0.0077833
-0.00891773
0.0045735
-4.44884e-05
-0.00103445
-0.00289022
-0.00452543
0.00321853
0
0.00183696
0.000181715
-0.000868863
0.0170103
0.0168324
0.0171627
0.0170995
0.00187446
-0.0132673
-0.0132103
0.00189441
0.0165291
-0.0131444
-0.0130046
-0.0127527
0.00186236
0.0161728
-0.0124476
-0.0121329
-0.0116509
0.0150627
0.0143092
0.0156452
0.00169073
-0.0112181
0.0130583
0.0124208
0.0135529
0.00143427
-0.0106253
0.00149069
0.0116381
-0.00993975
-0.00936165
-0.00857973
0.00137155
0.0106128
-0.00776481
-0.00697975
-0.00588258
0.00805389
0.00657579
0.00931302
0.000990011
-0.00494927
0.00363281
0.00220782
0.00512125
0.000544326
-0.00382299
5.7777e-05
0
-0.00257403
-0.00155069
0
-0.00077971
0.0143557
-0.0159325
-0.0150999
-0.0142053
0.0152857
0.000986089
0.0162373
0.00867105
-0.014688
-0.00301339
0.00938758
0.010286
-0.00175935
-0.0141019
-0.0136224
0.00917609
0.00862173
0.00960372
-0.00173383
-0.0129494
-0.00299384
-0.01392
-0.0146087
0
0
0.00203404
-0.000240624
0
0.000213098
-0.000857662
-0.000851315
0.0143348
0.0151871
-0.0138037
0.00108599
0.0159666
0.0152476
0.0161287
0.00101326
7.49819e-05
-0.0141051
-0.0139945
-0.015032
-0.000759544
-0.015768
0.0142519
-0.0135487
0.000200716
0.0141284
0.0138814
0.0156624
0.00103395
0.0147706
-0.000725577
-0.0146648
-0.0155411
-0.0144348
-0.0152982
-0.000695267
-0.0133124
-0.012051
-0.0140453
-0.00169062
0.0109513
-0.013137
0.0100996
-0.0016817
-0.0139542
-0.0146473
-0.0146856
-0.0146943
-0.00236907
0.015324
0.0134563
0.0144183
0.000904016
-0.0125679
-0.0132642
0.000156936
-0.0129518
0.0118503
0.011553
0.0115085
0.000716098
-0.00995061
0.0123089
-0.0120288
0.000643555
0.0120533
0.0120315
-0.0112568
4.64097e-05
-0.0106131
-0.012676
-0.0132464
-0.000565304
-0.0119028
-0.000475531
-0.011974
-0.00105588
-0.0125797
-0.0130639
0.0148582
0.0135396
0.000889411
0.0131046
0.0126809
3.36987e-05
0.012828
0.000780455
0.0136281
-0.014352
-0.000707955
-0.0133708
-0.0148274
-0.0137263
-0.000732757
0.000332888
0.00237192
0.00320167
-0.00136389
0.0042778
0.000113656
-0.0015098
-0.00125878
0.000387766
0.00229217
0.00315555
0.00567569
0.00541216
0.0062917
0.000218818
-0.00548176
0.00385156
0.000461401
0.00340602
0.01002
0.00865039
0.0093256
0.000483289
-0.00668101
0.010945
-0.0092596
0.000671317
0.0102171
0.00960306
-0.00838578
0.000120988
-0.00756804
0.0100848
0.0105348
-0.000947442
-0.000428281
-0.0104562
-0.00977652
0.0104198
0.000161434
0.0110063
-0.0104906
-0.00040034
-0.0112045
-0.00373828
-0.00255724
-0.000327109
-0.00819686
-0.000447274
-0.00935883
-0.00826976
-0.000494374
-0.00736467
-0.00591534
-0.000220026
-0.00577148
0.00885806
0.00723342
0.000442007
0.00776912
0.00679961
-0.000153129
-0.00301271
0.00863445
0.00935458
-0.00301841
0.00860734
0.00929084
-0.00407694
-2.95699e-05
-0.00295381
0.00923373
0.00994338
-0.00168489
0.00104346
-0.0158857
0.0161901
0.0150389
-0.000686281
-0.014009
0.000981649
0.00064129
-0.0125615
0.014024
0.0143452
0.0128812
-0.0138961
-0.0141029
-0.000684761
0.000325607
0.00464723
0.000625241
-0.000336789
0.000442226
-0.00903311
-0.00730537
0.00839382
-0.00302481
0.00193626
-0.0134823
0.00866163
-0.0111893
0.00769472
-0.0148751
-0.00431997
0.0109571
0.00975981
-0.00236505
-0.000386869
-0.00264278

SCALARS u_y double 1
LOOKUP_TABLE  table2
-0.0113316
-0.00739991
-0.00363416
-0.00358641
-0.000977357
-0.00168188
0.00120952
-0.000359828
0
-0.00148241
-0.0028621
-0.00498302
-0.00791693
-0.0112953
-0.0121029
-0.0091449
-0.00630777
-0.00661478
-0.00391877
-0.00340565
-0.00189673
0
0
0.000802456
-0.00208882
-0.00504661
-0.00867644
-0.0124043
-0.00945061
-0.00763895
-0.00931307
-0.0112959
-0.00954376
-0.00593924
-0.00565827
-0.00640871
-0.00434106
-0.00390701
-0.00319923
-0.00216889
-0.00244896
-0.00223209
-0.00223474
-0.00361237
-0.00113643
-0.00109495
-0.000385586
-0.0022115
-0.00014086
-0.000975904
4.52493e-05
-0.000374266
0.00100281
-0.0107751
-0.010664
-0.0124303
-0.00886832
-0.0105685
-0.00719432
-0.00684505
-0.00762893
-0.0057307
-0.00522465
-0.00433821
-0.00659165
-0.00533772
-0.0053082
-0.00382962
-0.0027163
-0.00370194
-0.001389
-0.000473251
-0.00240456
-0.00064817
-0.00168258
-0.000235738
0.000292954
0.000466813
-0.0100824
-0.0118501
-0.00823956
-0.00660334
-0.00496044
-0.00377058
-0.00510829
-0.00245757
-0.00130311
-0.00237644
-0.000237414
-0.000230145
0.000282656
-0.0118382
-0.0100312
-0.00828813
-0.00662833
-0.00504559
-0.00378293
-0.00251559
-0.00137653
-0.000365213
-0.000108543
-0.000161392
-0.0118263
-0.00510899
-0.00244919
-5.81211e-05
-0.0100497
-0.00824447
-0.00379064
-0.00377902
-0.00659755
-0.00382184
-0.00487108
-0.000223624
-4.82674e-05
-0.00131567
-0.00243102
-0.010398
-0.00939162
-0.0103367
-0.00862149
-0.00776319
-0.0085134
-0.00844301
-0.00751367
-0.00834416
-0.011345
-0.0103837
-0.0112296
-0.0104036
-0.0103608
-0.00948881
-0.00872796
-0.0066736
-0.00653539
-0.00691398
-0.00677339
-0.00581277
-0.00492781
-0.00471587
-0.00512206
-0.00396802
-0.00715804
-0.00614254
-0.00537809
-0.0056359
-0.00468328
-0.00372402
-0.00337138
-0.00439006
-0.00408558
-0.00356192
-0.00343403
-0.00300169
-0.00282065
-0.00301426
-0.00247967
-0.00265954
-0.00227508
-0.00189324
-0.00189828
-0.00286742
-0.00288089
-0.00366272
-0.0016131
-0.00160588
-0.00223626
-0.00289229
-0.00289306
-0.00359172
-0.00227018
-0.00134339
-0.00171465
-0.00163026
-0.00101569
-0.00138222
-0.00101257
-0.00197272
-0.00162227
-0.000760358
-7.8743e-05
0.000357833
-0.000586925
0.000578013
-0.00258311
-0.00159793
-0.00116876
-0.00175176
-0.000861008
-4.67372e-06
0.000365518
-0.00129171
-0.00066372
-0.000397113
-0.00086845
3.09831e-05
0.000378939
0.000962583
-0.000601269
-0.000183055
0.000226837
0
0.000944957
-0.0114706
-0.0115058
-0.0122963
-0.00999294
-0.0098619
-0.0107324
-0.0115435
-0.0115285
-0.0124296
-0.00897899
-0.00978375
-0.00876741
-0.00963346
-0.00971963
-0.0106046
-0.0114921
-0.00820348
-0.0080004
-0.00620364
-0.00596928
-0.00700533
-0.00788991
-0.00773883
-0.0084088
-0.00738413
-0.00690758
-0.00601445
-0.00661475
-0.00639542
-0.00537305
-0.00585795
-0.00548853
-0.00444756
-0.00396238
-0.0048605
-0.00512596
-0.00466815
-0.0064977
-0.00599017
-0.00661473
-0.0059745
-0.00599282
-0.00535173
-0.0046004
-0.00596731
-0.00531291
-0.00462713
-0.0039007
-0.00463033
-0.00463427
-0.00367973
-0.00304937
-0.00360809
-0.00239573
-0.0029097
-0.00335773
-0.00398173
-0.00439625
-0.00238715
-0.00197298
-0.000435762
0.000107589
-0.000980826
-0.00153946
-0.0011151
-0.00294537
-0.00183609
-0.00204341
-0.0012361
-0.00142311
-0.000900841
5.36242e-05
-0.00173988
-0.00108252
-0.00123246
-0.000416519
-0.00096075
-0.000508496
0.000209099
0
-8.28703e-05
0
0.000506045
1.7377e-05
0.000207237
0.000726675
-0.0106809
-0.0109433
-0.0115689
-0.00958656
-0.0104219
-0.0112295
-0.0120495
-0.00969951
-0.00780049
-0.00874624
-0.00917472
-0.00871068
-0.00697906
-0.00518876
-0.00610915
-0.00743287
-0.00791902
-0.00435205
-0.00577077
-0.00557336
-0.00635938
-0.00715093
-0.00366371
-0.00435587
-0.00236051
-0.00300108
-0.00443107
-0.00519903
-0.00585997
-0.0017257
-0.00311439
-0.00319242
-0.00388091
-0.00454543
-0.00143009
-0.00205412
-3.89749e-05
-0.000776616
-0.00186446
-0.00240823
-0.00282721
0.000593008
-0.000763082
-0.00112779
-0.0015331
-0.00197853
0.000387926
-0.000250737
-0.00051771
-0.00092431
-0.0010232
0.000548574
0
0.000637616
0.000177984
2.92917e-05
-0.00978478
-0.00894397
-0.0114893
-0.0106446
-0.010926
-0.0121614
-0.0112186
-0.00916365
-0.00812578
-0.0102954
-0.00939804
-0.00845516
-0.0074458
-0.00730527
-0.00749776
-0.00671713
-0.00587548
-0.00574953
-0.005113
-0.00652554
-0.00579758
-0.0050328
-0.00383419
-0.00329294
-0.00447687
-0.0043778
-0.00428463
-0.00318427
-0.00268477
-0.00366648
-0.00307563
-0.00228745
-0.00191175
-0.00221785
-0.00133421
-0.000915224
-0.000352166
-0.00132627
-0.00107356
-0.00179529
-0.000809745
0.000217758
-0.000604744
-0.00033947
-0.000761746
-9.6657e-06
0.000522393
-2.83355e-06
0
0.000125554
0.00026816
0
-0.0118413
-0.0115549
-0.0121485
-0.0121251
-0.0121092
-0.0115853
-0.0118644
-0.0115673
-0.00436397
-0.00585984
-0.00510916
-0.00438773
-0.00438709
-0.00505169
-0.00582596
-0.00573745
-0.00180589
-0.00174699
-0.00189221
-0.00246169
-0.00301341
-0.00244797
-0.0031344
-0.00316856
0
0
-0.000203944
3.80714e-06
0
-3.9532e-05
0.000146232
0.000241838
-0.0106653
-0.00975137
-0.00942419
-0.00914739
-0.00888031
-0.0106643
-0.00975089
-0.0109332
-0.0109351
-0.0112098
-0.010323
-0.0112312
-0.0109502
-0.0103883
-0.00972355
-0.00847643
-0.00914276
-0.00880102
-0.00787478
-0.00802894
-0.00826144
-0.00795383
-0.0100676
-0.00946371
-0.00949802
-0.00854222
-0.00860731
-0.00824675
-0.00457994
-0.00375224
-0.00521682
-0.00445256
-0.00374993
-0.00383812
-0.00368414
-0.00377812
-0.00386223
-0.00387249
-0.00455593
-0.00521393
-0.00444566
-0.00717915
-0.0070249
-0.00710175
-0.00661796
-0.00598882
-0.00760196
-0.00739513
-0.00680094
-0.00303156
-0.00391636
-0.00353076
-0.00320144
-0.00323771
-0.00364843
-0.00509604
-0.00440648
-0.00408921
-0.00439507
-0.00449354
-0.00435434
-0.00392142
-0.00527308
-0.00541392
-0.00490217
-0.00470152
-0.00437882
-0.0042712
-0.0043963
-0.0044897
-0.00510146
-0.00637371
-0.00545001
-0.00577511
-0.00618896
-0.00531177
-0.00576023
-0.00465575
-0.00495671
-0.00489065
-0.00698075
-0.00573931
-0.0060833
-0.00777841
-0.0068965
-0.00741246
4.50226e-05
0.000105295
0.000144018
-0.000158814
6.95089e-05
-0.000237791
-0.000146207
-8.44206e-05
-2.59843e-06
1.77835e-06
-3.73401e-05
-0.000156124
0.000425571
-0.000623858
-0.000186225
8.82404e-05
-0.000130593
-3.99307e-05
-0.000191746
-0.00190224
-0.00160742
-0.0017478
-0.00135868
-0.000599853
-0.00247436
-0.00239346
-0.00246795
-0.00228388
-0.00213371
-0.00164481
-0.00183248
-0.00115149
-0.00249746
-0.00307106
-0.00311798
-0.00242567
-0.00266539
-0.00254743
-0.00265379
-0.00311886
-0.00328516
-0.00336635
-0.00379996
-0.00351996
8.01464e-05
-9.7208e-05
-0.000174228
-0.00137486
-0.00181698
-0.00205832
-0.00158163
-0.00067418
-0.000876999
-0.000673544
-0.00010395
-0.000348088
-0.00144131
-0.000635289
-0.000769575
-0.000989947
-0.000302051
-0.000734835
-0.00443423
-0.00300512
-0.00367131
-0.0031183
-0.00236201
-0.00299931
-0.000304744
-0.000193649
-0.000452461
-0.00235767
-0.00300598
-0.00310811
-0.0100291
-0.011251
-0.0106541
-0.00883411
-0.00914747
-0.0045647
-0.00741003
-0.0038081
-0.00490853
-0.00627153
-0.00560063
-0.0042778
-0.00620576
-0.0076816
-0.00658186
4.12865e-05
-0.0003768
-0.00183679
-0.00303792
-9.24264e-05
-0.00179351
-0.00117406
-0.00118945
-0.00377581
0.000200511
-0.00520061
-0.00366841
-0.00405909
-0.000999035
-0.0103519
-0.000610181
-0.00286923
-0.00238889
-0.00310379
-0.00126896
-0.000292042

SCALARS u_z double 1
LOOKUP_TABLE  table3
0.213674
0.151801
0.0946426
0.0909717
0.0442777
0.0481624
0.0139263
0.00027728
0
0.0151932
0.0484406
0.096676
0.153033
0.214807
0.214601
0.151594
0.0951296
0.0910074
0.0443606
0.0475061
0.0149127
0
0
0.0143284
0.0488268
0.0962233
0.153161
0.214904
0.18297
0.152544
0.182243
0.213885
0.183599
0.123367
0.122763
0.123838
0.0960883
0.071406
0.0711603
0.0487818
0.0703956
0.0690646
0.0675845
0.0925631
0.0458935
0.0298631
0.029862
0.0295216
0.0152955
0.005396
0.00536104
0.000194412
0.00524682
0.182407
0.183135
0.213896
0.152456
0.18372
0.123279
0.12377
0.122523
0.0961112
0.0704941
0.0717437
0.0925688
0.0690396
0.0676346
0.0459019
0.0485842
0.0718543
0.0294686
0.0293152
0.0292722
0.015334
0.0054457
0.00660018
0.000401485
0.00584652
0.182269
0.213456
0.151381
0.122385
0.0945545
0.0675948
0.0909826
0.0442879
0.028952
0.047196
0.0135589
0.0044416
-0.0003956
0.214574
0.18356
0.152911
0.123571
0.0960069
0.0712776
0.0480465
0.0288815
0.0138855
0.00488257
-7.19799e-05
0.213787
0.0925489
0.0458797
4.6186e-05
0.182951
0.152362
0.0702059
0.0689972
0.123099
0.0711446
0.0952443
0.00522498
0.0134867
0.0292154
0.048194
0.198129
0.182637
0.197831
0.167954
0.15282
0.167663
0.167326
0.152183
0.16691
0.213603
0.198423
0.214591
0.199131
0.198809
0.183318
0.168236
0.137463
0.13714
0.138058
0.13779
0.123055
0.109058
0.108686
0.10943
0.0954702
0.138271
0.123648
0.109749
0.109902
0.0965179
0.0833633
0.0828643
0.0837885
0.0836721
0.0714616
0.059717
0.0596588
0.0708654
0.0823485
0.048779
0.0596544
0.0593158
0.0485218
0.0588893
0.0816046
0.0808087
0.0934839
0.0566674
0.0559236
0.0683407
0.0800422
0.079275
0.0917483
0.0697641
0.0468297
0.0581678
0.0574502
0.0450732
0.0388297
0.038713
0.0388452
0.0388991
0.0298449
0.0218019
0.0217206
0.0219057
0.0147061
0.0386188
0.0297903
0.0218709
0.0215566
0.0154686
0.00990041
0.00930708
0.00965442
0.010006
0.00548969
0.0024115
0.00262671
0.00536518
0.00906813
0.000162498
0.00263541
0.00267187
0
0.00285628
0.198061
0.19824
0.214038
0.166979
0.167436
0.182773
0.198502
0.198881
0.214484
0.152046
0.167772
0.152797
0.168376
0.168059
0.183431
0.199209
0.137346
0.137737
0.109567
0.109763
0.123568
0.138054
0.138306
0.136942
0.122954
0.108556
0.0957122
0.109051
0.109436
0.0962206
0.0825099
0.0830975
0.0588307
0.0597058
0.0712171
0.0835692
0.0838929
0.0935728
0.0816423
0.091757
0.0800544
0.0808068
0.0697748
0.0580578
0.0793166
0.0683322
0.0559811
0.0451276
0.0567107
0.0573984
0.0467328
0.0481924
0.0600246
0.0486633
0.0601582
0.0600232
0.0718184
0.0839366
0.0383944
0.0387688
0.0214623
0.0213758
0.0295821
0.0388037
0.0386809
0.0381921
0.0295066
0.0214198
0.0152239
0.0217292
0.0218498
0.0149729
0.0094238
0.00991298
0.00251558
0.00317413
0.00619717
0.0102638
0.0104292
0
0.00320253
0
0.00276242
0.00281236
0.00633876
0.00983605
0.197862
0.197861
0.21361
0.166865
0.182332
0.197944
0.213954
0.182208
0.151544
0.166841
0.166815
0.151411
0.136876
0.108405
0.12246
0.136655
0.136781
0.0945123
0.108263
0.094753
0.108335
0.122323
0.0792726
0.0909735
0.0559276
0.0675836
0.0792785
0.0792968
0.0909943
0.0442807
0.0559268
0.0443121
0.0559301
0.0676033
0.0380375
0.047522
0.0211259
0.0291577
0.0375327
0.0377622
0.0472479
0.0135452
0.020816
0.013995
0.0209492
0.0287771
0.0085444
0.00838945
0.00171952
0.00471693
0.0087011
0.00455016
0
0.00199752
0.0017719
-9.00004e-05
0.183543
0.168143
0.214894
0.199091
0.199075
0.214573
0.199106
0.168151
0.152932
0.183618
0.168241
0.153
0.138094
0.138118
0.138162
0.123546
0.109584
0.109624
0.0963067
0.12366
0.109502
0.0960145
0.0711679
0.0595221
0.0835097
0.0833787
0.0835707
0.0595473
0.0480935
0.0714742
0.0596785
0.0483129
0.0381254
0.0382038
0.0382818
0.0288127
0.0209478
0.0209931
0.0143853
0.0291056
0.0207563
0.0139326
0.00488078
0.00189178
0.00910683
0.00881366
0.00917866
0.00180598
0
0.0050955
0.0021559
0
0.213573
0.213624
0.213686
0.213826
0.214307
0.213832
0.214189
0.214374
0.0917513
0.0917548
0.0917487
0.0925776
0.0934682
0.0934858
0.092565
0.0935265
0.0458961
0.04508
0.0467463
0.0466552
0.046675
0.0450888
0.0458718
0.0451047
0
0
8.15955e-05
-0.000236208
0
-7.47886e-05
0.000189865
0.000307097
0.19809
0.182915
0.167988
0.167883
0.167882
0.198374
0.183254
0.198726
0.198365
0.198778
0.183337
0.198419
0.198086
0.182677
0.182589
0.152717
0.167578
0.167224
0.152044
0.152709
0.152615
0.152406
0.182613
0.167639
0.167281
0.152374
0.151923
0.151925
0.0696741
0.0586001
0.0807699
0.0814775
0.0821944
0.0580218
0.081485
0.0696268
0.0573787
0.056681
0.0683311
0.0800445
0.0807524
0.137888
0.137301
0.137615
0.123342
0.109361
0.137894
0.137539
0.123382
0.0594367
0.0827724
0.0710375
0.059534
0.0598216
0.0712295
0.0956913
0.0832147
0.0830733
0.0949437
0.0834637
0.0829993
0.0714526
0.0956263
0.0952832
0.0950641
0.0832297
0.0826437
0.0708837
0.0821692
0.0702903
0.0822774
0.123442
0.10914
0.109306
0.122873
0.108801
0.109028
0.0956454
0.0957491
0.0961402
0.122766
0.108779
0.109067
0.13718
0.123095
0.137129
0.00201578
0.0021536
0.00478325
0.00206601
0.0089961
0.00478563
0.00249158
0.00243666
0.00213443
0.00210803
0.0050659
0.0142897
0.0135742
0.0145746
0.0139277
0.0138536
0.00913052
0.00900696
0.005151
0.0383716
0.0383798
0.0384551
0.0290537
0.0211138
0.0484348
0.0483694
0.0481429
0.0483636
0.0480545
0.0384086
0.0382936
0.0291191
0.0586038
0.070249
0.0585179
0.047746
0.0478643
0.0482781
0.059054
0.0593915
0.0706976
0.0596237
0.0706915
0.0591761
0.00943373
0.00550652
0.00900845
0.0291118
0.0380373
0.0380896
0.02909
0.021178
0.0210575
0.0142623
0.0137898
0.0142886
0.0293041
0.021283
0.020961
0.0294119
0.0212438
0.0210223
0.0800301
0.0683326
0.0807854
0.0566577
0.0566514
0.0690072
0.00949148
0.0087512
0.00538741
0.0574152
0.0696605
0.0580122
0.183264
0.198152
0.198735
0.167574
0.167221
0.069
0.137872
0.071269
0.0828643
0.123167
0.109437
0.0833509
0.108834
0.137539
0.122762
0.00217689
0.00925758
0.038336