# vtk DataFile Version 3.0
The density field of the optimized results
ASCII
DATASET UNSTRUCTURED_GRID

POINTS	525	double
4.99636		1.00036		-0.000281091
3.98858		0.998774		-0.0141178
2.98025		1.0017		-0.0488244
1.97599		1.00368		-0.0959434
0.972165		1.0075		-0.153888
-0.0290621		1.01149		-0.216607
5		0		0
3.98748		0.00150279		-0.015402
2.97784		0.00290144		-0.0491063
1.97238		0.0050515		-0.0980047
0.968254		0.00802574		-0.155136
-0.0330164		0.0114505		-0.21776
0.0329623		1.01227		-1.21755
0.0289414		0.0125748		-1.21786
1.03134		1.00927		-1.15368
1.02793		0.00879569		-1.15527
2.02663		1.00639		-1.09644
2.02448		0.00511597		-1.09755
3.02262		1.00345		-1.04816
3.01928		0.00211753		-1.0495
4.01222		1.00192		-1.01512
4.01092		-0.000813485		-1.01453
5		1		-1
5		0		-1
0.469242		0.50958		-0.185484
0.970159		0.507744		-0.15464
0.471317		1.00944		-0.184748
-0.031027		0.511451		-0.216825
0.46729		0.00967492		-0.186122
1.47165		0.506021		-0.125063
1.47353		1.00574		-0.12445
1.47022		0.00649679		-0.12554
1.97389		0.504401		-0.097409
2.47465		0.00396071		-0.0723874
2.47655		0.503243		-0.0721384
2.97945		0.502199		-0.0494523
2.47771		1.00248		-0.0713631
3.48319		0.50111		-0.0302736
3.48426		1.00039		-0.0302724
3.48273		0.0022419		-0.0299274
3.9883		0.500143		-0.0155058
4.49229		0.000989317		-0.00547016
4.49354		0.499954		-0.00543473
4.99591		0.500379		-0.000197085
4.49329		0.998983		-0.00531894
0.532369		1.01092		-1.18491
0.530448		0.510811		-1.18565
0.0307841		0.512601		-1.21684
1.0297		0.50899		-1.15455
0.528593		0.0107138		-1.18624
1.52801		0.507293		-1.12497
1.52665		0.00693913		-1.12547
1.52954		1.00773		-1.12421
2.02574		0.505809		-1.09743
2.52479		1.0053		-1.07146
2.52309		0.504398		-1.07273
3.02053		0.502754		-1.04925
2.52196		0.00375282		-1.07284
3.51659		0.501408		-1.02987
3.51555		0.000479756		-1.02972
3.51752		1.00244		-1.02967
4.01142		0.500657		-1.01554
4.50661		1.00171		-1.00552
4.50607		0.500239		-1.00669
5.00204		0.499703		-1.00041
4.50575		-0.000473229		-1.00593
0.501634		1.01022		-0.684774
0.00166236		1.01201		-0.716389
1.00156		1.00835		-0.653462
1.50149		1.00669		-0.624067
2.00127		1.00503		-0.595854
3.50088		1.00132		-0.52935
3.00091		1.00241		-0.547845
4.00052		1.00024		-0.513745
4.4996		1.00023		-0.504503
5.00019		0.999713		-0.499599
-0.00191012		0.0120009		-0.717523
0.498061		0.0101691		-0.686083
0.998087		0.00840204		-0.655013
1.49816		0.00671943		-0.625269
1.99846		0.00511494		-0.597326
2.49851		0.00383492		-0.572257
2.99849		0.00255017		-0.548707
3.49875		0.00139545		-0.529278
3.99931		0.000370233		-0.514076
4.49951		0.000110035		-0.50495
4.99987		0.000163611		-0.499927
-5.64786e-05		0.511989		-0.716725
4.99962		0.500059		-0.500047
0.499842		0.510188		-0.685466
0.999754		0.508358		-0.654456
1.49997		0.506688		-0.624791
2.49985		0.503874		-0.572122
2.00003		0.504938		-0.596553
2.50095		1.00384		-0.571171
4.49995		0.500227		-0.505297
4.00036		0.500049		-0.513672
3.50014		0.501334		-0.529617
2.99983		0.502464		-0.548856
0.220024		0.760541		-0.200852
0.470235		0.759521		-0.185147
0.221072		1.01048		-0.20055
0.718629		0.25874		-0.170262
0.969214		0.25787		-0.154921
0.719598		0.50863		-0.169968
0.72059		0.758559		-0.169626
0.971156		0.757617		-0.154274
0.721666		1.00846		-0.169204
-0.0300431		0.761501		-0.216539
0.21905		0.510526		-0.20115
-0.0320774		0.261384		-0.21754
0.217043		0.0105466		-0.201867
0.218073		0.260503		-0.201541
0.468264		0.259619		-0.185838
0.717664		0.00884792		-0.170548
1.22189		0.756765		-0.139352
1.22278		1.00663		-0.139025
1.21994		0.257009		-0.139955
1.22082		0.506866		-0.139683
1.47258		0.755893		-0.124746
1.72347		0.754996		-0.110557
1.7245		1.00478		-0.11018
1.72267		0.505192		-0.110934
1.97473		0.754023		-0.0967824
1.21921		0.00725642		-0.140171
1.47089		0.256227		-0.125348
1.72202		0.255452		-0.111257
1.72131		0.00571337		-0.111412
1.97308		0.254748		-0.0978444
2.22519		0.503775		-0.084509
2.22608		0.753418		-0.0840032
2.22347		0.0044504		-0.0849401
2.22424		0.254142		-0.0848221
2.47557		0.253611		-0.0724438
2.72603		0.00348123		-0.0605378
2.72704		0.253043		-0.0604787
2.47717		0.752859		-0.0718393
2.22688		1.00306		-0.0834803
2.97868		0.252514		-0.0494495
2.72792		0.502696		-0.0604743
2.72852		0.752306		-0.060131
2.98009		0.751919		-0.0491887
2.72872		1.00192		-0.0596987
3.23206		0.751401		-0.0393633
3.23235		1.00103		-0.0392451
3.2306		0.252		-0.0393791
3.23117		0.501645		-0.0394338
3.48374		0.750771		-0.0302551
3.73574		0.75008		-0.0221016
3.73624		0.999637		-0.0220191
3.73555		0.500595		-0.0222068
3.98848		0.749414		-0.0149082
3.23034		0.00261862		-0.0391496
3.48287		0.25162		-0.0301998
3.73537		0.251185		-0.0221715
3.73515		0.00177584		-0.0218529
3.98783		0.250873		-0.0156812
4.24101		0.500005		-0.0100365
4.24129		0.749629		-0.009435
4.23986		0.00130946		-0.00978711
4.24049		0.250673		-0.0101435
4.49275		0.250403		-0.00556514
4.74519		0.000880386		-0.00244464
4.74561		0.249969		-0.00266281
4.49376		0.749616		-0.00543892
4.24093		0.999024		-0.00919277
4.99608		0.25061		-0.000164731
4.74536		0.500186		-0.00267163
4.74655		0.74977		-0.0027086
5		0.75		0
4.74544		0.999042		-0.00289554
0.282654		1.01163		-1.20078
0.281672		0.761664		-1.20096
0.031861		0.762465		-1.21698
0.781979		1.01013		-1.16927
0.781027		0.759997		-1.16974
0.531396		0.76088		-1.18529
0.280676		0.511702		-1.20123
0.279762		0.261687		-1.20161
0.0298932		0.2626		-1.21743
1.03054		0.759102		-1.15414
0.780135		0.509918		-1.17008
1.02886		0.258888		-1.1549
0.778307		0.00976587		-1.17069
0.779285		0.259853		-1.17037
0.529562		0.26075		-1.18595
0.278781		0.0116501		-1.20195
1.27963		0.758316		-1.13923
1.27897		0.50811		-1.13963
1.77629		0.256289		-1.11107
1.77568		0.00605132		-1.11127
1.52735		0.257102		-1.12527
1.27819		0.257998		-1.13995
1.2774		0.00784519		-1.14021
1.2805		1.00852		-1.13882
1.52873		0.757486		-1.12464
1.77832		1.007		-1.11005
2.02638		0.756097		-1.09703
1.77766		0.756706		-1.11055
1.77705		0.506483		-1.11094
2.02505		0.255447		-1.09754
2.27562		1.00594		-1.08364
2.2752		0.755564		-1.08424
2.77391		1.00451		-1.05964
2.77256		0.754017		-1.06053
2.52389		0.754927		-1.0722
2.27439		0.505196		-1.08472
2.27374		0.254732		-1.08505
3.02118		0.753091		-1.04885
2.77189		0.503658		-1.06085
3.02015		0.252429		-1.04933
2.77069		0.00294969		-1.06099
2.7716		0.253404		-1.06085
2.52264		0.254036		-1.07281
2.27318		0.00445667		-1.08509
3.26913		0.75242		-1.03892
3.26858		0.502		-1.0393
3.76387		0.250442		-1.02176
3.7633		-0.000109068		-1.02167
3.51612		0.250994		-1.02999
3.2683		0.251561		-1.03934
3.26751		0.00113043		-1.03921
3.2699		1.00299		-1.03872
3.5169		0.751861		-1.02991
3.76505		1.00207		-1.02171
4.01178		0.751253		-1.01543
3.7645		0.751443		-1.02203
3.76429		0.500913		-1.02215
4.01102		0.249946		-1.01518
4.25944		1.00176		-1.00955
4.25912		0.751097		-1.01005
4.75369		1.00125		-1.00255
4.75315		0.750422		-1.00322
4.50609		0.750974		-1.00628
4.25861		0.500515		-1.0104
4.25818		0.249788		-1.01057
5		0.75		-1
4.75391		0.500084		-1.00325
5		0.25		-1
4.75316		-0.000513		-1.0028
4.75364		0.249982		-1.00285
4.50582		0.24979		-1.00643
4.25825		-0.000736662		-1.00997
0.236415		1.01083		-0.450581
0.251664		1.01109		-0.700581
-0.0136062		1.01173		-0.466546
0.766639		1.00972		-0.919159
0.516866		1.01057		-0.934838
0.26695		1.01138		-0.950664
0.0170437		1.01222		-0.966895
0.486529		1.00983		-0.434713
0.986905		1.00791		-0.403627
0.736608		1.00887		-0.419134
0.751562		1.0093		-0.669108
1.01632		1.00883		-0.903492
1.23731		1.00707		-0.388757
1.73819		1.00526		-0.359895
1.48774		1.00619		-0.374143
1.25153		1.00754		-0.638534
1.26584		1.00803		-0.888661
1.98867		1.00441		-0.345811
1.75149		1.00585		-0.609751
2.01387		1.00565		-0.846055
1.76478		1.00645		-0.859824
1.51536		1.00725		-0.874004
3.24182		1.00145		-0.28856
2.99052		1.00208		-0.298175
3.74386		1.00004		-0.271416
3.49295		1.00079		-0.279558
3.25088		1.00189		-0.538049
3.26021		1.00244		-0.788281
3.01154		1.00287		-0.797897
3.99465		0.999399		-0.263731
3.7509		1.00077		-0.521102
4.00631		1.00114		-0.764187
3.75789		1.00155		-0.771237
3.50904		1.00201		-0.779173
4.24536		0.999607		-0.258662
4.25005		1.00025		-0.508505
4.75105		1.00052		-0.751743
4.50293		1.00094		-0.754782
4.25459		1.00104		-0.758821
4.49674		0.999444		-0.254613
5		1		-0.25
4.74814		0.999354		-0.252025
4.74982		0.99982		-0.501796
5.00088		0.99997		-0.749909
0.482756		0.00991926		-0.436066
0.732936		0.0090669		-0.420454
-0.0173986		0.0116472		-0.467848
0.232666		0.0107909		-0.451828
0.2481		0.0110762		-0.701811
0.0134497		0.0123286		-0.967522
0.263392		0.0113728		-0.951843
0.74808		0.0092896		-0.670462
0.983244		0.00823746		-0.405034
0.513325		0.0104369		-0.936142
0.763183		0.00952721		-0.920553
1.01293		0.00857137		-0.905102
1.24811		0.00754813		-0.639992
1.2336		0.00740567		-0.390017
1.26262		0.00760081		-0.890061
1.5123		0.00680945		-0.875244
1.76181		0.00595623		-0.86109
1.73473		0.00582856		-0.361131
1.98549		0.00518328		-0.34763
1.48414		0.00661523		-0.37536
1.74829		0.00587726		-0.611007
2.01137		0.00510197		-0.847334
2.48676		0.00388689		-0.322146
2.73741		0.00333819		-0.31034
2.23626		0.0045384		-0.334657
2.24855		0.00443796		-0.584525
2.26077		0.00434352		-0.834719
2.74849		0.00322804		-0.560366
2.9882		0.00272167		-0.298755
2.51008		0.00371687		-0.822457
2.75949		0.0031179		-0.810499
3.0087		0.00231889		-0.798977
3.24861		0.00193803		-0.538649
3.23924		0.00224834		-0.288729
3.25787		0.00135255		-0.788808
3.50708		0.000927803		-0.779209
3.75596		0.000357006		-0.771236
3.74184		0.0013445		-0.271282
3.99333		0.00108832		-0.264583
3.49056		0.00181996		-0.279506
3.749		0.000820874		-0.521042
4.00502		-0.000220751		-0.764124
4.49632		0.000613055		-0.254948
4.74776		0.000344135		-0.251918
4.24481		0.000772216		-0.259232
4.24945		9.79855e-06		-0.508935
4.25388		-0.000529572		-0.759305
4.74994		2.87249e-06		-0.501831
5		0		-0.25
4.50261		-0.00012728		-0.755166
4.75157		-0.000271845		-0.752186
5		0		-0.75
0.000790426		0.762004		-0.716508
-0.014553		0.761714		-0.46656
[...]
POINT_DATA	525
SCALARS u_x double 1
LOOKUP_TABLE  table1
-0.00364222
-0.0114241
-0.0197483
-0.0240136
-0.027835
-0.0290621
0
-0.0125152
-0.0221558
-0.0276225
-0.031746
-0.0330164
0.0329623
0.0289414
0.0313393
0.0279313
0.0266275
0.0244785
0.022617
0.019281
0.0122161
0.0109221
0
0
-0.0307584
-0.029841
-0.028683
-0.031027
-0.0327103
-0.0283482
-0.026474
-0.0297773
-0.0261086
-0.0253496
-0.0234463
-0.0205488
-0.0222936
-0.0168074
-0.0157438
-0.0172703
-0.0116987
-0.0077054
-0.00645734
-0.00408713
-0.0067104
0.0323685
0.0304476
0.0307841
0.029703
0.0285926
0.0280087
0.0266529
0.0295374
0.0257369
0.0247905
0.0230892
0.0205274
0.0219551
0.0165867
0.0155478
0.0175164
0.0114194
0.00661136
0.00607302
0.00203925
0.00574575
0.00163362
0.00166236
0.00156492
0.00149458
0.00126775
0.000875226
0.000913869
0.000521917
-0.000398568
0.000193333
-0.00191012
-0.00193853
-0.0019132
-0.00183881
-0.00154009
-0.00149264
-0.00151383
-0.00124917
-0.000693756
-0.000489103
-0.000130235
-5.64786e-05
-0.000376887
-0.00015814
-0.000246011
-2.77394e-05
-0.000145403
3.20183e-05
0.00094783
-4.66275e-05
0.000356405
0.000139371
-0.000168559
-0.0299757
-0.0297648
-0.0289283
-0.0313705
-0.0307855
-0.0304021
-0.0294103
-0.0288438
-0.028334
-0.0300431
-0.0309499
-0.0320774
-0.0329573
-0.031927
-0.0317359
-0.0323365
-0.0281136
-0.0272191
-0.0300585
-0.0291845
-0.0274171
-0.0265316
-0.0255
-0.0273296
-0.0252705
-0.03079
-0.0291144
-0.0279789
-0.0286915
-0.0269172
-0.0248133
-0.0239225
-0.0265273
-0.0257617
-0.0244326
-0.0239667
-0.0229576
-0.0228344
-0.0231207
-0.0213221
-0.0220807
-0.0214834
-0.019913
-0.0212781
-0.0179433
-0.0176469
-0.019396
-0.0188345
-0.0162554
-0.0142568
-0.0137626
-0.0144468
-0.011525
-0.0196558
-0.0171278
-0.0146305
-0.0148466
-0.0121723
-0.00899145
-0.00871345
-0.0101416
-0.00950729
-0.00725432
-0.00481435
-0.00438673
-0.00623989
-0.00907447
-0.00392384
-0.00463783
-0.00344706
0
-0.00456273
0.0326544
0.0316719
0.031861
0.0319788
0.0310268
0.0313964
0.0306757
0.0297616
0.0298932
0.0305393
0.0301345
0.0288615
0.0283074
0.0292855
0.0295623
0.0287806
0.0296343
0.0289678
0.026292
0.0256842
0.0273496
0.0281859
0.0274031
0.0304981
0.0287348
0.028316
0.0263818
0.0276643
0.027053
0.0250543
0.0256233
0.0252033
0.0239059
0.0225604
0.0238862
0.0243883
0.0237359
0.0211844
0.0218893
0.0201457
0.0206882
0.0216033
0.0226367
0.0231764
0.0191296
0.018577
0.0138731
0.0133
0.0161181
0.0182968
0.017513
0.0198985
0.0168974
0.0150543
0.0117757
0.0145037
0.0142861
0.0110194
0.00944277
0.00912046
0.00368583
0.00315426
0.00609075
0.00861387
0.0081765
0
0.00391129
0
0.00315648
0.00364376
0.00581947
0.0082525
-0.0135848
0.0016644
-0.0136062
0.0166394
0.0168663
0.0169498
0.0170437
-0.0134715
-0.0130948
-0.0133921
0.00156161
0.0163242
-0.0126919
-0.0118125
-0.0122577
0.00152826
0.0158371
-0.0113307
0.00148547
0.013867
0.0147824
0.0153551
-0.00818125
-0.00947922
-0.00613691
-0.00705199
0.000884628
0.0102077
0.0115419
-0.00534622
0.000899821
0.00630895
0.00789028
0.00904029
-0.00463636
4.50998e-05
0.00104867
0.00292994
0.00458763
-0.00326276
0
-0.00186221
-0.000184212
0.000880804
-0.0172441
-0.0170637
-0.0173986
-0.0173345
-0.00190023
0.0134497
0.0133918
-0.00192045
-0.0167563
0.013325
0.0131833
0.012928
-0.00188795
-0.0163951
0.0126187
0.0122997
0.0118111
-0.0152698
-0.0145058
-0.0158602
-0.00171397
0.0113723
-0.0132378
-0.0125915
-0.0137391
-0.00145398
0.0107713
-0.00151118
-0.011798
0.0100764
0.00949032
0.00869766
-0.0013904
-0.0107586
0.00787153
0.00707568
0.00596343
-0.00816458
-0.00666616
-0.00944101
-0.00100362
0.0050173
-0.00368274
-0.00223817
-0.00519163
-0.000551807
0.00387553
-5.85711e-05
0
0.0026094
0.00157201
0
0.000790426
-0.014553
0.0161514
0.0153075
0.0144005
-0.0154957
-0.000999642
-0.0164605
0
0
-0.002062
0.000243931
0
-0.000216027
0.00086945
0.000863015
-0.0145318
-0.0153958
0.0139934
-0.00110092
-0.016186
-0.0154572
-0.0163504
-0.00102719
-7.60124e-05
0.0142989
0.0141869
0.0152386
0.000769983
0.0159847
-0.0144478
0.0137349
-0.000203475
-0.0143226
-0.0140722
-0.0158777
-0.00104816
-0.0149736
0.000735549
0.0148663
0.0157547
0.0146332
0.0155085
0.000704823
-0.0155346
-0.0136413
-0.0146164
-0.000916441
0.0127406
0.0134465
-0.000159093
0.0131298
-0.0120131
-0.0117118
-0.0116666
-0.00072594
0.0100874
-0.0124781
0.0121941
-0.0006524
-0.0122189
-0.0121969
0.0114115
-4.70476e-05
0.010759
0.0128502
0.0134284
0.000573073
0.0120664
-0.0111018
0.000482067
0.0121386
0.0122166
0.00107039
0.0127526
0.0132434
-0.0150624
-0.0137257
-0.000901635
-0.0132848
-0.0128551
-3.41618e-05
-0.0130043
-0.000791182
-0.0138154
0.0145493
0.000717686
0.0135546
0.0150312
0.0139149
0.000742828
-0.000337463
-0.00240452
-0.00324568
0.00138263
-0.00433659
-0.000115219
0.00153055
0.00127608
-0.000393095
-0.00232367
-0.00319892
-0.00575369
-0.00548654
-0.00637817
-0.000221825
0.0055571
-0.0039045
-0.000467743
-0.00345284
-0.0101577
-0.00876928
-0.00945377
-0.000489932
0.00677284
-0.0110955
0.00938686
-0.000680543
-0.0103576
-0.00973505
0.00850104
-0.000122651
0.00767206
-0.0102234
0.000960464
-0.0106796
0.000434167
0.0105999
0.00991089
-0.010563
-0.000163652
-0.0111575
0.0106347
0.000405843
0.0113585
0.00378966
0.00259238
0.000331605
0.00830952
0.000453421
0.00948745
0.00838343
0.000501169
0.0074659
0.00599664
0.00022305
0.0058508
-0.00897981
-0.00733284
-0.000448082
-0.0078759
-0.00689306
0.000155234
0.00413297
2.99763e-05
0.00299441
-0.00105781
0.016104
-0.0164126
-0.0152456
0.000695713
-0.000995141
-0.000650104
0.0127342
-0.0142167
-0.0145424
-0.0130582
0.014087
0.0142967
0.000694172
-0.000330082
-0.0047111
-0.000633834
0.000341418
-0.000448304
0.00915726
0.00740577
-0.00850918
-0.00196287
0.0113431
-0.00780048
0.0150795
0.00437934
-0.0111077
0.000392186
0.00267911

SCALARS u_y double 1
LOOKUP_TABLE  table2
0.000364773
-0.00122614
0.00170499
0.0036841
0.00750161
0.0114874
0
0.00150279
0.00290144
0.0050515
0.00802574
0.0114505
0.0122693
0.0125748
0.00927059
0.00879569
0.00639447
0.00511597
0.00345245
0.00211753
0.0019228
-0.000813485
0
0
0.0095805
0.00774394
0.00944107
0.0114512
0.00967492
0.00602087
0.00573604
0.00649679
0.00440073
0.00396071
0.0032432
0.00219869
0.00248262
0.00111
0.000390886
0.0022419
0.000142796
0.000989317
-4.58712e-05
0.00037941
-0.00101659
0.0109232
0.0108106
0.0126012
0.00899021
0.0107138
0.0072932
0.00693913
0.00773379
0.00580947
0.00529646
0.00439784
0.00275363
0.00375282
0.00140809
0.000479756
0.00243761
0.000657078
0.00170571
0.000238978
-0.00029698
-0.000473229
0.010221
0.012013
0.00835281
0.0066941
0.00502861
0.00132102
0.0024091
0.000240677
0.000233308
-0.000286541
0.0120009
0.0101691
0.00840204
0.00671943
0.00511494
0.00383492
0.00255017
0.00139545
0.000370233
0.000110035
0.000163611
0.0119889
5.89199e-05
0.0101879
0.00835778
0.00668823
0.00387437
0.00493802
0.00384274
0.000226697
4.89308e-05
0.00133376
0.00246443
0.0105409
0.0095207
0.0104787
0.00873998
0.00786989
0.00863041
0.00855905
0.00761694
0.00845884
0.0115009
0.0105264
0.0113839
0.0105466
0.0105032
0.00961923
0.00884792
0.00676533
0.00662522
0.007009
0.00686648
0.00589266
0.00499554
0.00478068
0.00519246
0.00402255
0.00725642
0.00622696
0.00545201
0.00571337
0.00474765
0.00377521
0.00341772
0.0044504
0.00414174
0.00361088
0.00348123
0.00304294
0.00285942
0.00305569
0.00251375
0.0026961
0.00230635
0.00191926
0.00192437
0.00140122
0.00102648
0.00199983
0.00164456
0.000770809
7.98252e-05
-0.000362751
0.000594992
-0.000585957
0.00261862
0.00161989
0.00118483
0.00177584
0.000872842
4.73795e-06
-0.000370541
0.00130946
0.000672842
0.000402571
0.000880386
-3.14089e-05
-0.000384147
-0.000975813
0.000609533
0.000185571
-0.000229955
0
-0.000957944
0.0116283
0.0116639
0.0124653
0.0101303
0.00999744
0.0108799
0.0117022
0.011687
0.0126004
0.00910239
0.00991821
0.00888791
0.00976587
0.00985322
0.0107503
0.0116501
0.00831623
0.00811036
0.0062889
0.00605132
0.00710161
0.00799835
0.00784519
0.00852437
0.00748562
0.00700252
0.00609711
0.00670566
0.00648332
0.0054469
0.00593846
0.00556397
0.00450869
0.00401684
0.00492731
0.00519642
0.00473231
0.00309128
0.00365768
0.00242866
0.00294969
0.00340388
0.00403645
0.00445667
0.00241996
0.0020001
0.000441751
-0.000109068
0.000994307
0.00156062
0.00113043
0.00298585
0.00186133
0.0020715
0.00125309
0.00144267
0.000913223
-5.43612e-05
0.00176379
0.0010974
0.0012494
0.000422244
0.000973955
0.000515485
-0.000211973
0
8.40093e-05
0
-0.000513
-1.76159e-05
-0.000210085
-0.000736662
0.0108277
0.0110937
0.0117279
0.00971832
0.0105651
0.0113838
0.0122152
0.00983282
0.0079077
0.00886645
0.00930082
0.0088304
0.00707498
0.00526008
0.00619311
0.00753502
0.00802786
0.00441186
0.00585008
0.00564996
0.00644678
0.00724921
0.00144974
0.00208235
3.95105e-05
0.00078729
0.00189008
0.00244133
0.00286607
-0.000601158
0.00077357
0.00114329
0.00155417
0.00200572
-0.000393258
0.000254183
0.000524825
0.000937013
0.00103727
-0.000556114
0
-0.000646379
-0.00018043
-2.96943e-05
0.00991926
0.0090669
0.0116472
0.0107909
0.0110762
0.0123286
0.0113728
0.0092896
0.00823746
0.0104369
0.00952721
0.00857137
0.00754813
0.00740567
0.00760081
0.00680945
0.00595623
0.00582856
0.00518328
0.00661523
0.00587726
0.00510197
0.00388689
0.00333819
0.0045384
0.00443796
0.00434352
0.00322804
0.00272167
0.00371687
0.0031179
0.00231889
0.00193803
0.00224834
0.00135255
0.000927803
0.000357006
0.0013445
0.00108832
0.00181996
0.000820874
-0.000220751
0.000613055
0.000344135
0.000772216
9.79855e-06
-0.000529572
2.87249e-06
0
-0.00012728
-0.000271845
0
0.0120041
0.0117137
0.0123154
0.0122917
0.0122757
0.0117445
0.0120274
0.0117263
0
0
0.000206747
-3.85946e-06
0
4.00753e-05
-0.000148242
-0.000245162
0.0108119
0.00988539
0.00955371
0.00927311
0.00900236
0.0108109
0.00988491
0.0110835
0.0110854
0.0113639
0.0104649
0.0113856
0.0111007
0.0105311
0.00985719
0.00859293
0.00926842
0.00892199
0.00798301
0.00813928
0.00837499
0.00806315
0.010206
0.00959378
0.00962856
0.00865962
0.00872561
0.00836009
0.00727782
0.00712145
0.00719936
0.00670891
0.00607113
0.00770644
0.00749677
0.00689442
0.00307323
0.00397019
0.00357929
0.00324544
0.00328221
0.00369857
0.00516608
0.00446704
0.00414541
0.00445547
0.0045553
0.00441419
0.00397532
0.00534556
0.00548832
0.00496954
0.00476614
0.00380147
0.004439
0.00432991
0.00380382
0.00445672
0.0045514
0.00517158
0.00646131
0.00552491
0.00585449
0.00627402
0.00538478
0.0058394
0.00471974
0.00502483
0.00495787
0.0070767
0.00581819
0.00616691
0.00788532
0.00699128
0.00751433
-4.56414e-05
-0.000106742
-0.000145997
0.000160997
-7.04642e-05
0.000241059
0.000148216
8.55809e-05
2.63415e-06
-1.80279e-06
3.78533e-05
0.00015827
-0.00043142
0.000632432
0.000188785
-8.94532e-05
0.000132388
4.04795e-05
0.000194381
0.00192838
0.00162952
0.00177182
0.00137735
0.000608097
0.00250837
0.00242636
0.00250187
0.00231527
0.00216303
0.00166741
0.00185767
0.00116731
0.00253178
0.00316083
0.00311327
0.002459
0.00270202
0.00258245
0.00269026
0.00316173
0.00333031
0.00341261
0.00385219
0.00356834
-8.12479e-05
9.85441e-05
0.000176623
0.00139375
0.00184195
0.00208661
0.00160337
0.000683446
0.000889053
0.000682801
0.000105378
0.000352872
0.00146112
0.000644021
0.000780152
0.00100355
0.000306202
0.000744934
0.000308932
0.00019631
0.000458679
0.0101669
0.0114056
0.0108005
0.00895552
0.00927319
0.00751188
0.00386044
0.00497599
0.00635773
0.00567761
0.00433659
0.00629106
0.00778718
0.00667232
-4.1854e-05
0.000381978
0.00186204
0.00307967
9.36967e-05
0.00181816
0.0011902
0.0012058
-0.000203267
0.00411488
0.00101277
0.0104942
0.000618567
0.00290866
0.0012864
0.000296056

SCALARS u_z double 1
LOOKUP_TABLE  table3
-0.000281091
-0.0141178
-0.0488244
-0.0959434
-0.153888
-0.216607
0
-0.015402
-0.0491063
-0.0980047
-0.155136
-0.21776
-0.217551
-0.217857
-0.153677
-0.155266
-0.096437
-0.0975458
-0.048159
-0.0494979
-0.0151176
-0.0145253
0
0
-0.185484
-0.15464
-0.184748
-0.216825
-0.186122
-0.125063
-0.12445
-0.12554
-0.097409
-0.0723874
-0.0721384
-0.0494523
-0.0713631
-0.0302736
-0.0302724
-0.0299274
-0.0155058
-0.00547016
-0.00543473
-0.000197085
-0.00531894
-0.184914
-0.185652
-0.216835
-0.154551
-0.186245
-0.124973
-0.125471
-0.124207
-0.0974322
-0.0714629
-0.0727297
-0.049252
-0.0728419
-0.0298736
-0.0297182
-0.0296746
-0.0155447
-0.00552054
-0.00669089
-0.000407003
-0.00592687
-0.184774
-0.216389
-0.153462
-0.124067
-0.0958541
-0.0293499
-0.0478447
-0.0137453
-0.00450264
0.000401037
-0.217523
-0.186083
-0.155013
-0.125269
-0.0973264
-0.0722573
-0.0487069
-0.0292784
-0.0140763
-0.00494968
7.29692e-05
-0.216725
-4.68208e-05
-0.185466
-0.154456
-0.124791
-0.0721224
-0.0965533
-0.0711708
-0.00529679
-0.013672
-0.029617
-0.0488564
-0.200852
-0.185147
-0.20055
-0.170262
-0.154921
-0.169968
-0.169626
-0.154274
-0.169204
-0.216539
-0.20115
-0.21754
-0.201867
-0.201541
-0.185838
-0.170548
-0.139352
-0.139025
-0.139955
-0.139683
-0.124746
-0.110557
-0.11018
-0.110934
-0.0967824
-0.140171
-0.125348
-0.111257
-0.111412
-0.0978444
-0.084509
-0.0840032
-0.0849401
-0.0848221
-0.0724438
-0.0605378
-0.0604787
-0.0718393
-0.0834803
-0.0494495
-0.0604743
-0.060131
-0.0491887
-0.0596987
-0.0393633
-0.0392451
-0.0393791
-0.0394338
-0.0302551
-0.0221016
-0.0220191
-0.0222068
-0.0149082
-0.0391496
-0.0301998
-0.0221715
-0.0218529
-0.0156812
-0.0100365
-0.009435
-0.00978711
-0.0101435
-0.00556514
-0.00244464
-0.00266281
-0.00543892
-0.00919277
-0.000164731
-0.00267163
-0.0027086
0
-0.00289554
-0.200783
-0.200964
-0.21698
-0.169274
-0.169738
-0.185285
-0.20123
-0.201614
-0.217432
-0.154136
-0.170078
-0.154897
-0.17069
-0.170369
-0.185952
-0.201947
-0.139234
-0.13963
-0.111072
-0.111272
-0.125266
-0.139952
-0.140207
-0.138824
-0.124644
-0.110048
-0.0970277
-0.11055
-0.110941
-0.0975431
-0.0836439
-0.0842396
-0.0596393
-0.0605264
-0.0721959
-0.0847177
-0.085046
-0.0488547
-0.0608496
-0.0493321
-0.0609851
-0.0608481
-0.0728055
-0.0850902
-0.0389221
-0.0393016
-0.0217573
-0.0216696
-0.0299887
-0.039337
-0.0392126
-0.038717
-0.0299121
-0.0217142
-0.0154332
-0.0220278
-0.0221501
-0.0151786
-0.00955332
-0.0100492
-0.00255016
-0.00321776
-0.00628234
-0.0104048
-0.0105726
0
-0.00324654
0
-0.00280039
-0.00285101
-0.00642588
-0.00997123
-0.200581
-0.200581
-0.216546
-0.169159
-0.184838
-0.200664
-0.216895
-0.184713
-0.153627
-0.169134
-0.169108
-0.153492
-0.138757
-0.109895
-0.124143
-0.138534
-0.138661
-0.0958113
-0.109751
-0.0960553
-0.109824
-0.124004
-0.0385602
-0.0481751
-0.0214163
-0.0295584
-0.0380485
-0.0382812
-0.0478973
-0.0137314
-0.0211021
-0.0141873
-0.0212372
-0.0291726
-0.00866183
-0.00850475
-0.00174316
-0.00478176
-0.00882069
-0.00461269
0
-0.00202498
-0.00179625
9.12374e-05
-0.186066
-0.170454
-0.217848
-0.201828
-0.201811
-0.217522
-0.201843
-0.170462
-0.155034
-0.186142
-0.170553
-0.155102
-0.139992
-0.140017
-0.140061
-0.125244
-0.11109
-0.111131
-0.0976304
-0.12536
-0.111007
-0.0973341
-0.0721461
-0.0603401
-0.0846575
-0.0845247
-0.0847193
-0.0603657
-0.0487545
-0.0724566
-0.0604987
-0.048977
-0.0386494
-0.0387289
-0.0388079
-0.0292087
-0.0212357
-0.0212816
-0.014583
-0.0295056
-0.0210416
-0.0141241
-0.00494786
-0.00191778
-0.009232
-0.00893479
-0.00930481
-0.0018308
0
-0.00516553
-0.00218553
0
-0.216508
-0.21656
-0.216623
-0.216765
-0.217252
-0.216771
-0.217133
-0.21732
0
0
-8.2717e-05
0.000239454
0
7.58165e-05
-0.000192474
-0.000311318
-0.200813
-0.185429
-0.170297
-0.17019
-0.170189
-0.201101
-0.185773
-0.201457
-0.201091
-0.20151
-0.185857
-0.201146
-0.200808
-0.185187
-0.185099
-0.154816
-0.169881
-0.169522
-0.154134
-0.154808
-0.154713
-0.154501
-0.185123
-0.169943
-0.16958
-0.154469
-0.154011
-0.154013
-0.139783
-0.139188
-0.139507
-0.125037
-0.110864
-0.139789
-0.13943
-0.125078
-0.0602536
-0.08391
-0.0720139
-0.0603523
-0.0606438
-0.0722084
-0.0970065
-0.0843584
-0.084215
-0.0962486
-0.0846108
-0.0841401
-0.0724347
-0.0969406
-0.0965928
-0.0963707
-0.0843736
-0.0833241
-0.0837796
-0.0718579
-0.0594055
-0.0832986
-0.0712563
-0.0834083
-0.125139
-0.11064
-0.110809
-0.124562
-0.110296
-0.110527
-0.0969599
-0.0970651
-0.0974616
-0.124454
-0.110275
-0.110567
-0.139065
-0.124787
-0.139014
-0.00204349
-0.0021832
-0.00484899
-0.0020944
-0.00911975
-0.00485141
-0.00252582
-0.00247015
-0.00216376
-0.00213701
-0.00513553
-0.0144861
-0.0137608
-0.0147749
-0.0141191
-0.014044
-0.00925601
-0.00913075
-0.00522179
-0.0388989
-0.0389073
-0.0389836
-0.0294531
-0.021404
-0.0491005
-0.0490342
-0.0488046
-0.0490283
-0.0487149
-0.0389365
-0.0388199
-0.0295193
-0.0594092
-0.0593221
-0.0712145
-0.0484023
-0.0485221
-0.0489417
-0.0598657
-0.0602078
-0.0716693
-0.0604432
-0.0716631
-0.0599894
-0.00956339
-0.0055822
-0.00913226
-0.0295119
-0.03856
-0.0386131
-0.0294898
-0.0214691
-0.021347
-0.0144583
-0.0139794
-0.014485
-0.0297069
-0.0215755
-0.021249
-0.0298161
-0.0215358
-0.0213112
-0.00962193
-0.00887148
-0.00546146
-0.185783
-0.200875
-0.201466
-0.169877
-0.169519
-0.139767
-0.0722485
-0.0840032
-0.12486
-0.110941
-0.0844964
-0.110329
-0.139429
-0.12445
-0.00220681
-0.00938482
-0.0388629
-0.0598229
-0.00521445
-0.038867
-0.0215519
-0.0297849
-0.0021952
-0.0722846
-0.0215274
-0.185529
-0.00942502
-0.0601574
-0.0295243
-0.00579102

SCALARS u_magnitude double 1
LOOKUP_TABLE  table4
0.00367122
0.0182023
0.0526946
0.0989715
0.156565
0.21885
0
0.0199026
0.0539512
0.101948
0.158554
0.220546
0.220375
0.220131
0.157114
0.158004
0.10025
0.1007
0.0533174
0.0531628
0.0195314
0.0181917
0
0
0.188261
0.157683
0.1872
0.219333
0.189222
0.128377
0.127364
0.129187
0.100943
0.0767999
0.0759223
0.0535968
0.0748055
0.0346441
0.0341239
0.0346256
0.0194244
0.00950129
0.00844012
0.00410943
0.00862288
0.188043
0.188443
0.219372
0.157636
0.188731
0.128281
0.128458
0.127905
0.100941
0.0758259
0.0764334
0.0534295
0.0761712
0.0341985
0.033543
0.0345449
0.0192996
0.00878043
0.00903918
0.00210057
0.00826834
0.185064
0.216729
0.153697
0.124256
0.0959943
0.0293927
0.047914
0.0137573
0.00452627
0.000529447
0.217863
0.186371
0.155252
0.125463
0.0974729
0.0723744
0.0487971
0.0293383
0.0140983
0.004975
0.000221481
0.217056
0.000384328
0.185745
0.154682
0.12497
0.0722265
0.0966795
0.0712808
0.00530184
0.0136767
0.0296473
0.0489188
0.20335
0.187766
0.202896
0.173349
0.158146
0.172881
0.172369
0.157132
0.171768
0.218915
0.203789
0.220187
0.204812
0.204325
0.188773
0.173812
0.142321
0.141819
0.143318
0.142865
0.127859
0.113805
0.113193
0.114368
0.100108
0.143696
0.128835
0.114851
0.115189
0.10159
0.0881574
0.08741
0.0890973
0.0887446
0.0765382
0.0652023
0.064761
0.0754352
0.0866768
0.0539092
0.0644357
0.0638952
0.0531012
0.0634066
0.0432828
0.0430424
0.0439422
0.0437317
0.0343541
0.026301
0.0259689
0.0264991
0.0188527
0.0438851
0.0347565
0.02659
0.0264787
0.0198702
0.0134751
0.0128484
0.0141547
0.0139188
0.00915194
0.00547077
0.00513176
0.00828647
0.012954
0.00397432
0.00535551
0.00438994
0
0.00548819
0.203753
0.203779
0.219661
0.172566
0.172839
0.188241
0.203891
0.204134
0.219839
0.157396
0.173012
0.157814
0.173297
0.173148
0.188594
0.20432
0.142595
0.142834
0.114315
0.114358
0.128413
0.142986
0.143075
0.14239
0.128132
0.113848
0.100735
0.114156
0.114375
0.100857
0.0876819
0.0881049
0.0644102
0.064719
0.0762042
0.0883113
0.0884229
0.0533397
0.0647704
0.0533423
0.0644661
0.064659
0.0763502
0.0883026
0.0434365
0.0435169
0.0258078
0.0254258
0.0340603
0.0434121
0.0429605
0.0436333
0.0344053
0.0265034
0.019453
0.0264133
0.0263733
0.0187569
0.0135478
0.0136152
0.00465292
0.00452566
0.00880418
0.0135176
0.0133671
0
0.00508383
0
0.00425073
0.00462661
0.00867193
0.0129643
0.201332
0.200894
0.21729
0.170253
0.185906
0.2017
0.217906
0.185464
0.154387
0.169895
0.16937
0.15461
0.139516
0.110653
0.1249
0.138747
0.139793
0.0965798
0.109916
0.0972154
0.111002
0.125162
0.0394452
0.049143
0.0222783
0.0303982
0.0381057
0.039694
0.0493516
0.0147477
0.0211355
0.0155689
0.0227088
0.0306071
0.00983249
0.00850867
0.00210089
0.00568575
0.00999634
0.00567731
0
0.00282598
0.00181467
0.000886015
0.187127
0.171545
0.218852
0.202858
0.202123
0.218286
0.202606
0.170725
0.156155
0.18691
0.171327
0.155876
0.140208
0.141168
0.140833
0.126031
0.111875
0.112326
0.0988381
0.126532
0.111176
0.098129
0.0734534
0.0617302
0.0858851
0.0846536